 
             +---------------------------------------------------+
             |                                                   |
             |                   WANNIER90                       |
             |                                                   |
             +---------------------------------------------------+
             |                                                   |
             |        Welcome to the Maximally-Localized         |
             |        Generalized Wannier Functions code         |
             |            http://www.wannier.org                 |
             |                                                   |
             |                                                   |
             |  Wannier90 Developer Group:                       |
             |    Giovanni Pizzi    (EPFL)                       |
             |    Valerio Vitale    (Cambridge)                  |
             |    David Vanderbilt  (Rutgers University)         |
             |    Nicola Marzari    (EPFL)                       |
             |    Ivo Souza         (Universidad del Pais Vasco) |
             |    Arash A. Mostofi  (Imperial College London)    |
             |    Jonathan R. Yates (University of Oxford)       |
             |                                                   |
             |  For the full list of Wannier90 3.x authors,      |
             |  please check the code documentation and the      |
             |  README on the GitHub page of the code            |
             |                                                   |
             |                                                   |
             |  Please cite                                      |
             |                                                   |
             |  [ref] "Wannier90 as a community code:            |
             |        new features and applications",            |
             |        G. Pizzi et al., J. Phys. Cond. Matt. 32,  |
             |        165902 (2020).                             |
             |        http://doi.org/10.1088/1361-648X/ab51ff    |
             |                                                   |
             |  in any publications arising from the use of      |
             |  this code. For the method please cite            |
             |                                                   |
             |  [ref] "Maximally Localized Generalised Wannier   |
             |         Functions for Composite Energy Bands"     |
             |         N. Marzari and D. Vanderbilt              |
             |         Phys. Rev. B 56 12847 (1997)              |
             |                                                   |
             |  [ref] "Maximally Localized Wannier Functions     |
             |         for Entangled Energy Bands"               |
             |         I. Souza, N. Marzari and D. Vanderbilt    |
             |         Phys. Rev. B 65 035109 (2001)             |
             |                                                   |
             |                                                   |
             | Copyright (c) 1996-2020                           |
             |        The Wannier90 Developer Group and          |
             |        individual contributors                    |
             |                                                   |
             |      Release: 3.1.0        5th March    2020      |
             |                                                   |
             | This program is free software; you can            |
             | redistribute it and/or modify it under the terms  |
             | of the GNU General Public License as published by |
             | the Free Software Foundation; either version 2 of |
             | the License, or (at your option) any later version|
             |                                                   |
             | This program is distributed in the hope that it   |
             | will be useful, but WITHOUT ANY WARRANTY; without |
             | even the implied warranty of MERCHANTABILITY or   |
             | FITNESS FOR A PARTICULAR PURPOSE. See the GNU     |
             | General Public License for more details.          |
             |                                                   |
             | You should have received a copy of the GNU General|
             | Public License along with this program; if not,   |
             | write to the Free Software Foundation, Inc.,      |
             | 675 Mass Ave, Cambridge, MA 02139, USA.           |
             |                                                   |
             +---------------------------------------------------+
             |    Execution started on 30May2024 at 13:10:43     |
             +---------------------------------------------------+
 
 ******************************************************************************
 * -> Using CODATA 2006 constant values                                       *
 *    (http://physics.nist.gov/cuu/Constants/index.html)                      *
 * -> Using Bohr value from CODATA                                            *
 ******************************************************************************
 

 Running in parallel on  32 CPUs

 
                                    ------
                                    SYSTEM
                                    ------
 
                              Lattice Vectors (Ang)
                    a_1     3.150231   0.000000   0.000000
                    a_2    -1.575115   2.728180   0.000000
                    a_3     0.000000   0.000000  11.984555
 
                   Unit Cell Volume:     103.00000  (Ang^3)
 
                        Reciprocal-Space Vectors (Ang^-1)
                    b_1     1.994516   1.151534   0.000000
                    b_2     0.000000   2.303069   0.000000
                    b_3     0.000000   0.000000   0.524274
  
 *----------------------------------------------------------------------------*
 |   Site       Fractional Coordinate          Cartesian Coordinate (Ang)     |
 +----------------------------------------------------------------------------+
 | Mo   1   0.33333   0.66667   0.25000   |   -0.00000   1.81879   2.99614    |
 | Mo   2   0.66667   0.33333   0.75000   |    1.57512   0.90939   8.98842    |
 | S    1   0.66667   0.33333   0.38102   |    1.57512   0.90939   4.56636    |
 | S    2   0.33333   0.66667   0.88102   |   -0.00000   1.81879  10.55863    |
 | S    3   0.66667   0.33333   0.11898   |    1.57512   0.90939   1.42592    |
 | S    4   0.33333   0.66667   0.61898   |   -0.00000   1.81879   7.41820    |
 *----------------------------------------------------------------------------*
                                ------------
                                K-POINT GRID
                                ------------
  
             Grid size = 18 x 18 x  5      Total points = 1620
  
  
 *---------------------------------- MAIN ------------------------------------*
 |  Number of Wannier Functions               :                26             |
 |  Number of Objective Wannier Functions     :                26             |
 |  Number of input Bloch states              :                52             |
 |  Output verbosity (1=low, 5=high)          :                 1             |
 |  Timing Level (1=low, 5=high)              :                 1             |
 |  Optimisation (0=memory, 3=speed)          :                 3             |
 |  Length Unit                               :               Ang             |
 |  Post-processing setup (write *.nnkp)      :                 F             |
 |  Using Gamma-only branch of algorithms     :                 F             |
 *----------------------------------------------------------------------------*
 *------------------------------- WANNIERISE ---------------------------------*
 |  Total number of iterations                :              7150             |
 |  Number of CG steps before reset           :                 5             |
 |  Trial step length for line search         :             2.000             |
 |  Convergence tolerence                     :         0.100E-09             |
 |  Convergence window                        :                -1             |
 |  Iterations between writing output         :                50             |
 |  Iterations between backing up to disk     :               100             |
 |  Write r^2_nm to file                      :                 F             |
 |  Write xyz WF centres to file              :                 F             |
 |  Write on-site energies <0n|H|0n> to file  :                 F             |
 |  Use guiding centre to control phases      :                 T             |
 |  Use phases for initial projections        :                 F             |
 |  Iterations before starting guiding centres:                 0             |
 |  Iterations between using guiding centres  :                 1             |
 *----------------------------------------------------------------------------*
 *------------------------------- DISENTANGLE --------------------------------*
 |  Using band disentanglement                :                 T             |
 |  Total number of iterations                :             50000             |
 |  Mixing ratio                              :             0.500             |
 |  Convergence tolerence                     :         1.000E-10             |
 |  Convergence window                        :                 3             |
 *----------------------------------------------------------------------------*
 *-------------------------------- PLOTTING ----------------------------------*
 |  Plotting interpolated bandstructure       :                 T             |
 |   Number of K-path sections                :                 3             |
 |   Divisions along first K-path section     :               100             |
 |   Output format                            :           gnuplot             |
 |   Output mode                              :               s-k             |
 *----------------------------------------------------------------------------*
 |   K-space path sections:                                                   |
 |    From: G       0.000  0.000  0.000     To: M       0.500 -0.500  0.000   |
 |    From: M       0.500 -0.500  0.000     To: K       0.667 -0.333  0.000   |
 |    From: K       0.667 -0.333  0.000     To: G       0.000  0.000  0.000   |
 *----------------------------------------------------------------------------*
 Time to read parameters        0.121 (sec)

 *---------------------------------- K-MESH ----------------------------------*
 +----------------------------------------------------------------------------+
 |                    Distance to Nearest-Neighbour Shells                    |
 |                    ------------------------------------                    |
 |          Shell             Distance (Ang^-1)          Multiplicity         |
 |          -----             -----------------          ------------         |
 |             1                   0.104855                      2            |
 |             2                   0.127948                      6            |
 |             3                   0.165425                     12            |
 |             4                   0.209709                      2            |
 |             5                   0.221613                      6            |
 |             6                   0.245167                     12            |
 |             7                   0.245660                     12            |
 |             8                   0.255897                      6            |
 |             9                   0.276546                     12            |
 |            10                   0.305107                     12            |
 |            11                   0.314564                      2            |
 |            12                   0.330849                     12            |
 |            13                   0.338519                     12            |
 |            14                   0.339590                     12            |
 |            15                   0.354387                     24            |
 |            16                   0.383845                      6            |
 |            17                   0.384789                     12            |
 |            18                   0.397909                     12            |
 |            19                   0.398213                     24            |
 |            20                   0.405504                     12            |
 |            21                   0.419419                      2            |
 |            22                   0.437396                     12            |
 |            23                   0.438501                     12            |
 |            24                   0.443226                      6            |
 |            25                   0.455460                     12            |
 |            26                   0.461324                     12            |
 |            27                   0.462110                     24            |
 |            28                   0.473090                     24            |
 |            29                   0.474367                     12            |
 |            30                   0.490334                     12            |
 |            31                   0.491320                     12            |
 |            32                   0.496274                     12            |
 |            33                   0.506752                     24            |
 |            34                   0.511793                      6            |
 |            35                   0.522424                     12            |
 |            36                   0.524274                      2            |
 +----------------------------------------------------------------------------+
 | The b-vectors are chosen automatically                                     |
 | The following shells are used:   1,  2                                     |
 +----------------------------------------------------------------------------+
 |                        Shell   # Nearest-Neighbours                        |
 |                        -----   --------------------                        |
 |                          1               2                                 |
 |                          2               6                                 |
 +----------------------------------------------------------------------------+
 | Completeness relation is fully satisfied [Eq. (B1), PRB 56, 12847 (1997)]  |
 +----------------------------------------------------------------------------+
 |                  b_k Vectors (Ang^-1) and Weights (Ang^2)                  |
 |                  ----------------------------------------                  |
 |            No.         b_k(x)      b_k(y)      b_k(z)        w_b           |
 |            ---        --------------------------------     --------        |
 |             1         0.000000    0.000000    0.104855    45.477240        |
 |             2         0.000000    0.000000   -0.104855    45.477240        |
 |             3         0.000000    0.127948    0.000000    20.361506        |
 |             4         0.110806    0.063974    0.000000    20.361506        |
 |             5         0.000000   -0.127948    0.000000    20.361506        |
 |             6         0.110806   -0.063974    0.000000    20.361506        |
 |             7        -0.110806   -0.063974    0.000000    20.361506        |
 |             8        -0.110806    0.063974    0.000000    20.361506        |
 +----------------------------------------------------------------------------+
 |                           b_k Directions (Ang^-1)                          |
 |                           -----------------------                          |
 |            No.           x           y           z                         |
 |            ---        --------------------------------                     |
 |             1         0.000000    0.000000    0.104855                     |
 |             2         0.000000    0.127948    0.000000                     |
 |             3         0.110806    0.063974    0.000000                     |
 |             4         0.110806   -0.063974    0.000000                     |
 +----------------------------------------------------------------------------+
  
 Time to get kmesh              0.680 (sec)
 *============================================================================*
 |                              MEMORY ESTIMATE                               |
 |         Maximum RAM allocated during each phase of the calculation         |
 *============================================================================*
 |                        Disentanglement          754.80 Mb                  |
 |                            Wannierise:          381.87 Mb                  |
 |                          plot_wannier:          381.87 Mb                  |
 *----------------------------------------------------------------------------*
  
 Starting a new Wannier90 calculation ...


 Reading overlaps from MoS2.mmn    :  Created on 30May2024 at 11:54:20

 Reading projections from MoS2.amn :  Created on 30May2024 at 11:49:57

 Time to read overlaps         24.990 (sec)

 *------------------------------- DISENTANGLE --------------------------------*
 +----------------------------------------------------------------------------+
 |                              Energy  Windows                               |
 |                              ---------------                               |
 |                   Outer:   -4.00000  to   29.00000  (eV)                   |
 |                   Inner:   -4.00000  to   16.50630  (eV)                   |
 +----------------------------------------------------------------------------+
   Number of target bands to extract:   26

                   Unitarised projection of Wannier functions                  
                   ------------------------------------------                  
   A_mn = <psi_m|g_n> --> S = A.A^+ --> U = S^-1/2.A
   In dis_project... done
   Using an inner window (linner = T)
   In dis_proj_froz... done

                   Extraction of optimally-connected subspace                  
                   ------------------------------------------                  
 +---------------------------------------------------------------------+<-- DIS
 |  Iter     Omega_I(i-1)      Omega_I(i)      Delta (frac.)    Time   |<-- DIS
 +---------------------------------------------------------------------+<-- DIS
       1      32.08754001      32.08754001      -2.220E-16      0.00    <-- DIS
       2      32.08754001      32.08754001      -2.220E-16      0.03    <-- DIS
       3      32.08754001      32.08754001      -2.220E-16      0.06    <-- DIS

             <<<      Delta < 1.000E-10  over  3 iterations     >>>
             <<< Disentanglement convergence criteria satisfied >>>

        Final Omega_I    32.08754001 (Ang^2)

 +----------------------------------------------------------------------------+

 Time to disentangle bands      1.523 (sec)

 Writing checkpoint file MoS2.chk... done

 
 *------------------------------- WANNIERISE ---------------------------------*
 +--------------------------------------------------------------------+<-- CONV
 | Iter  Delta Spread     RMS Gradient      Spread (Ang^2)      Time  |<-- CONV
 +--------------------------------------------------------------------+<-- CONV
 
 ------------------------------------------------------------------------------
 Initial State
  WF centre and spread    1  ( -0.000000,  1.818838,  2.996139 )     1.50833699
  WF centre and spread    2  ( -0.000001,  1.805565,  2.996139 )     1.71369060
  WF centre and spread    3  ( -0.000001,  1.831779,  2.996139 )     1.70976965
  WF centre and spread    4  ( -0.000000,  1.730244,  2.996139 )     1.60211165
  WF centre and spread    5  ( -0.000001,  1.907231,  2.996139 )     1.60227594
  WF centre and spread    6  (  1.575116,  0.909342,  8.988416 )     1.50833708
  WF centre and spread    7  (  1.575116,  0.922615,  8.988416 )     1.71369079
  WF centre and spread    8  (  1.575116,  0.896401,  8.988416 )     1.70976963
  WF centre and spread    9  (  1.575116,  0.997936,  8.988416 )     1.60211179
  WF centre and spread   10  (  1.575116,  0.820948,  8.988416 )     1.60227592
  WF centre and spread   11  (  1.575128,  0.909354,  4.543418 )     1.07593630
  WF centre and spread   12  (  1.575116,  0.909425,  4.511411 )     1.95619322
  WF centre and spread   13  (  1.575102,  0.917328,  4.528982 )     1.69348283
  WF centre and spread   14  (  1.575115,  0.901601,  4.529007 )     1.69137248
  WF centre and spread   15  ( -0.000013,  1.818825, 10.535695 )     1.07593629
  WF centre and spread   16  ( -0.000001,  1.818754, 10.503688 )     1.95619313
  WF centre and spread   17  (  0.000013,  1.810852, 10.521260 )     1.69348277
  WF centre and spread   18  ( -0.000000,  1.826578, 10.521285 )     1.69137248
  WF centre and spread   19  (  1.575128,  0.909354,  1.448860 )     1.07593632
  WF centre and spread   20  (  1.575116,  0.909425,  1.480867 )     1.95619328
  WF centre and spread   21  (  1.575102,  0.917328,  1.463295 )     1.69348284
  WF centre and spread   22  (  1.575115,  0.901601,  1.463270 )     1.69137253
  WF centre and spread   23  ( -0.000013,  1.818825,  7.441137 )     1.07593631
  WF centre and spread   24  ( -0.000001,  1.818754,  7.473144 )     1.95619319
  WF centre and spread   25  (  0.000013,  1.810852,  7.455573 )     1.69348277
  WF centre and spread   26  ( -0.000000,  1.826578,  7.455548 )     1.69137253
  Sum of centres and spreads ( 20.476496, 35.466332,155.799215 )    41.94030933
 
      0     0.419E+02     0.0000000000       41.9402955619       1.35  <-- CONV
        O_D=      0.0570584 O_OD=      9.7956972 O_TOT=     41.9402956 <-- SPRD
 ------------------------------------------------------------------------------
 Cycle:      1
  WF centre and spread    1  ( -0.000000,  1.818829,  2.996139 )     1.50320865
  WF centre and spread    2  ( -0.000001,  1.806763,  2.996139 )     1.69744587
  WF centre and spread    3  ( -0.000000,  1.830622,  2.996139 )     1.69424910
  WF centre and spread    4  ( -0.000000,  1.727489,  2.996139 )     1.60000468
  WF centre and spread    5  ( -0.000001,  1.909942,  2.996139 )     1.60017065
  WF centre and spread    6  (  1.575115,  0.909350,  8.988416 )     1.50320875
  WF centre and spread    7  (  1.575116,  0.921417,  8.988416 )     1.69744605
  WF centre and spread    8  (  1.575116,  0.897557,  8.988416 )     1.69424909
  WF centre and spread    9  (  1.575115,  1.000690,  8.988416 )     1.60000482
  WF centre and spread   10  (  1.575116,  0.818237,  8.988416 )     1.60017063
  WF centre and spread   11  (  1.575129,  0.909455,  4.546181 )     1.05938215
  WF centre and spread   12  (  1.575116,  0.909446,  4.510265 )     1.95148064
  WF centre and spread   13  (  1.575102,  0.917620,  4.528687 )     1.69522116
  WF centre and spread   14  (  1.575115,  0.901196,  4.528705 )     1.69354840
  WF centre and spread   15  ( -0.000014,  1.818725, 10.538459 )     1.05938214
  WF centre and spread   16  ( -0.000001,  1.818733, 10.502542 )     1.95148056
  WF centre and spread   17  (  0.000013,  1.810559, 10.520964 )     1.69522109
  WF centre and spread   18  ( -0.000000,  1.826983, 10.520983 )     1.69354840
  WF centre and spread   19  (  1.575129,  0.909455,  1.446096 )     1.05938217
  WF centre and spread   20  (  1.575116,  0.909446,  1.482013 )     1.95148070
  WF centre and spread   21  (  1.575102,  0.917620,  1.463591 )     1.69522117
  WF centre and spread   22  (  1.575115,  0.901196,  1.463572 )     1.69354846
  WF centre and spread   23  ( -0.000014,  1.818725,  7.438374 )     1.05938216
  WF centre and spread   24  ( -0.000001,  1.818733,  7.474290 )     1.95148062
  WF centre and spread   25  (  0.000013,  1.810559,  7.455868 )     1.69522110
  WF centre and spread   26  ( -0.000000,  1.826983,  7.455850 )     1.69354845
  Sum of centres and spreads ( 20.476496, 35.466332,155.799215 )    41.78868766
 
      1    -0.152E+00     0.1338445220       41.7886738863       1.45  <-- CONV
        O_D=      0.0572679 O_OD=      9.6438659 O_TOT=     41.7886739 <-- SPRD
 Delta: O_D=  0.2095551E-03 O_OD= -0.1518312E+00 O_TOT= -0.1516217E+00 <-- DLTA
 ------------------------------------------------------------------------------
 Cycle:     50
  WF centre and spread    1  (  0.000000,  1.818910,  2.996139 )     1.51775526
  WF centre and spread    2  ( -0.000000,  1.807429,  2.996139 )     1.70298479
  WF centre and spread    3  (  0.000000,  1.830188,  2.996139 )     1.70305944
  WF centre and spread    4  (  0.000000,  1.710248,  2.996139 )     1.63140051
  WF centre and spread    5  ( -0.000000,  1.926190,  2.996139 )     1.63169373
  WF centre and spread    6  (  1.575115,  0.909269,  8.988416 )     1.51775536
  WF centre and spread    7  (  1.575115,  0.920751,  8.988416 )     1.70298492
  WF centre and spread    8  (  1.575115,  0.897991,  8.988416 )     1.70305947
  WF centre and spread    9  (  1.575115,  1.017932,  8.988416 )     1.63140065
  WF centre and spread   10  (  1.575115,  0.801989,  8.988416 )     1.63169371
  WF centre and spread   11  (  1.575149,  0.916651,  4.589875 )     0.98552926
  WF centre and spread   12  (  1.575115,  0.909790,  4.474087 )     1.89864684
  WF centre and spread   13  (  1.575081,  0.918943,  4.529402 )     1.68615019
  WF centre and spread   14  (  1.575115,  0.892623,  4.529412 )     1.68605056
  WF centre and spread   15  ( -0.000034,  1.811528, 10.582153 )     0.98552924
  WF centre and spread   16  ( -0.000000,  1.818389, 10.466364 )     1.89864676
  WF centre and spread   17  (  0.000034,  1.809237, 10.521680 )     1.68615014
  WF centre and spread   18  ( -0.000000,  1.835557, 10.521689 )     1.68605055
  WF centre and spread   19  (  1.575149,  0.916651,  1.402402 )     0.98552927
  WF centre and spread   20  (  1.575115,  0.909790,  1.518191 )     1.89864689
  WF centre and spread   21  (  1.575081,  0.918943,  1.462875 )     1.68615021
  WF centre and spread   22  (  1.575115,  0.892623,  1.462866 )     1.68605060
  WF centre and spread   23  ( -0.000034,  1.811528,  7.394680 )     0.98552925
  WF centre and spread   24  ( -0.000000,  1.818389,  7.510468 )     1.89864681
  WF centre and spread   25  (  0.000034,  1.809237,  7.455153 )     1.68615016
  WF centre and spread   26  ( -0.000000,  1.835557,  7.455143 )     1.68605059
  Sum of centres and spreads ( 20.476496, 35.466332,155.799215 )    41.39929519
 
     50    -0.897E-03     0.0197174143       41.3992814131       3.90  <-- CONV
        O_D=      0.0607936 O_OD=      9.2509478 O_TOT=     41.3992814 <-- SPRD
 Delta: O_D=  0.1963265E-04 O_OD= -0.9168218E-03 O_TOT= -0.8971892E-03 <-- DLTA
 ------------------------------------------------------------------------------
 Cycle:    100
  WF centre and spread    1  (  0.000000,  1.819098,  2.996139 )     1.51926838
  WF centre and spread    2  (  0.000000,  1.807497,  2.996139 )     1.70185369
  WF centre and spread    3  (  0.000000,  1.830161,  2.996139 )     1.70218174
  WF centre and spread    4  (  0.000000,  1.709652,  2.996139 )     1.63289766
  WF centre and spread    5  ( -0.000000,  1.926573,  2.996139 )     1.63317786
  WF centre and spread    6  (  1.575115,  0.909082,  8.988416 )     1.51926848
  WF centre and spread    7  (  1.575115,  0.920682,  8.988416 )     1.70185381
  WF centre and spread    8  (  1.575115,  0.898019,  8.988416 )     1.70218177
  WF centre and spread    9  (  1.575115,  1.018528,  8.988416 )     1.63289780
  WF centre and spread   10  (  1.575115,  0.801606,  8.988416 )     1.63317784
  WF centre and spread   11  (  1.575213,  0.939317,  4.702615 )     0.95853826
  WF centre and spread   12  (  1.575116,  0.910126,  4.360103 )     1.87415796
  WF centre and spread   13  (  1.575015,  0.918933,  4.529421 )     1.68626379
  WF centre and spread   14  (  1.575115,  0.869528,  4.529525 )     1.68446726
  WF centre and spread   15  ( -0.000099,  1.788861, 10.694893 )     0.95853823
  WF centre and spread   16  ( -0.000001,  1.818053, 10.352381 )     1.87415785
  WF centre and spread   17  (  0.000100,  1.809246, 10.521698 )     1.68626372
  WF centre and spread   18  ( -0.000000,  1.858652, 10.521803 )     1.68446721
  WF centre and spread   19  (  1.575213,  0.939317,  1.289662 )     0.95853830
  WF centre and spread   20  (  1.575116,  0.910126,  1.632174 )     1.87415801
  WF centre and spread   21  (  1.575015,  0.918933,  1.462857 )     1.68626380
  WF centre and spread   22  (  1.575115,  0.869528,  1.462752 )     1.68446729
  WF centre and spread   23  ( -0.000099,  1.788861,  7.281940 )     0.95853823
  WF centre and spread   24  ( -0.000001,  1.818053,  7.624452 )     1.87415791
  WF centre and spread   25  (  0.000100,  1.809246,  7.455134 )     1.68626376
  WF centre and spread   26  ( -0.000000,  1.858652,  7.455030 )     1.68446725
  Sum of centres and spreads ( 20.476496, 35.466332,155.799215 )    41.19246787
 
    100    -0.997E-02     0.0644862058       41.1924540972       6.38  <-- CONV
        O_D=      0.0611317 O_OD=      9.0437823 O_TOT=     41.1924541 <-- SPRD
 Delta: O_D=  0.1217194E-03 O_OD= -0.1009324E-01 O_TOT= -0.9971519E-02 <-- DLTA
 ------------------------------------------------------------------------------

 Writing checkpoint file MoS2.chk... done

 Cycle:    150
  WF centre and spread    1  (  0.000000,  1.819360,  2.996139 )     1.52256757
  WF centre and spread    2  (  0.000000,  1.807739,  2.996139 )     1.70062165
  WF centre and spread    3  (  0.000001,  1.830039,  2.996139 )     1.70176484
  WF centre and spread    4  (  0.000000,  1.708881,  2.996139 )     1.63778259
  WF centre and spread    5  ( -0.000000,  1.927190,  2.996139 )     1.63794700
  WF centre and spread    6  (  1.575115,  0.908820,  8.988416 )     1.52256767
  WF centre and spread    7  (  1.575115,  0.920440,  8.988416 )     1.70062176
  WF centre and spread    8  (  1.575115,  0.898140,  8.988416 )     1.70176488
  WF centre and spread    9  (  1.575115,  1.019298,  8.988416 )     1.63778272
  WF centre and spread   10  (  1.575115,  0.800989,  8.988416 )     1.63794697
  WF centre and spread   11  (  1.575353,  0.988489,  4.923072 )     0.90400392
  WF centre and spread   12  (  1.575133,  0.915965,  4.136239 )     1.68490691
  WF centre and spread   13  (  1.574858,  0.918844,  4.529406 )     1.68809345
  WF centre and spread   14  (  1.575116,  0.814292,  4.530836 )     1.67526535
  WF centre and spread   15  ( -0.000238,  1.739689, 10.915349 )     0.90400406
  WF centre and spread   16  ( -0.000018,  1.812214, 10.128517 )     1.68490683
  WF centre and spread   17  (  0.000258,  1.809336, 10.521684 )     1.68809320
  WF centre and spread   18  ( -0.000000,  1.913888, 10.523114 )     1.67526495
  WF centre and spread   19  (  1.575353,  0.988490,  1.069206 )     0.90400417
  WF centre and spread   20  (  1.575133,  0.915965,  1.856038 )     1.68490699
  WF centre and spread   21  (  1.574858,  0.918843,  1.462871 )     1.68809336
  WF centre and spread   22  (  1.575116,  0.814292,  1.461441 )     1.67526521
  WF centre and spread   23  ( -0.000238,  1.739688,  7.061483 )     0.90400391
  WF centre and spread   24  ( -0.000018,  1.812215,  7.848316 )     1.68490691
  WF centre and spread   25  (  0.000258,  1.809336,  7.455149 )     1.68809339
  WF centre and spread   26  ( -0.000000,  1.913889,  7.453719 )     1.67526495
  Sum of centres and spreads ( 20.476496, 35.466332,155.799215 )    40.21044522
 
    150    -0.322E-01     0.1193168687       40.2104314351       9.38  <-- CONV
        O_D=      0.0613876 O_OD=      8.0615038 O_TOT=     40.2104314 <-- SPRD
 Delta: O_D=  0.7027284E-03 O_OD= -0.3289129E-01 O_TOT= -0.3218856E-01 <-- DLTA
 ------------------------------------------------------------------------------
 Cycle:    200
  WF centre and spread    1  (  0.000001,  1.819728,  2.996139 )     1.52223265
  WF centre and spread    2  ( -0.000000,  1.807948,  2.996139 )     1.69663628
  WF centre and spread    3  (  0.000001,  1.829947,  2.996139 )     1.69871409
  WF centre and spread    4  (  0.000001,  1.708370,  2.996139 )     1.63572392
  WF centre and spread    5  ( -0.000001,  1.927186,  2.996139 )     1.63478493
  WF centre and spread    6  (  1.575114,  0.908451,  8.988416 )     1.52223274
  WF centre and spread    7  (  1.575115,  0.920232,  8.988416 )     1.69663638
  WF centre and spread    8  (  1.575114,  0.898233,  8.988416 )     1.69871413
  WF centre and spread    9  (  1.575114,  1.019809,  8.988416 )     1.63572406
  WF centre and spread   10  (  1.575117,  0.800993,  8.988416 )     1.63478489
  WF centre and spread   11  (  1.575494,  1.037438,  5.046086 )     0.93052006
  WF centre and spread   12  (  1.575201,  0.939889,  4.007885 )     1.42474348
  WF centre and spread   13  (  1.574644,  0.918784,  4.529304 )     1.68732289
  WF centre and spread   14  (  1.575119,  0.741281,  4.535982 )     1.64470398
  WF centre and spread   15  ( -0.000380,  1.690740, 11.038363 )     0.93052050
  WF centre and spread   16  ( -0.000087,  1.788290, 10.000162 )     1.42474377
  WF centre and spread   17  (  0.000472,  1.809395, 10.521581 )     1.68732245
  WF centre and spread   18  ( -0.000004,  1.986901, 10.528260 )     1.64470277
  WF centre and spread   19  (  1.575494,  1.037438,  0.946192 )     0.93052054
  WF centre and spread   20  (  1.575201,  0.939889,  1.984393 )     1.42474369
  WF centre and spread   21  (  1.574644,  0.918784,  1.462974 )     1.68732266
  WF centre and spread   22  (  1.575119,  0.741280,  1.456295 )     1.64470351
  WF centre and spread   23  ( -0.000380,  1.690739,  6.938469 )     0.93052019
  WF centre and spread   24  ( -0.000087,  1.788290,  7.976670 )     1.42474390
  WF centre and spread   25  (  0.000472,  1.809395,  7.455251 )     1.68732278
  WF centre and spread   26  ( -0.000004,  1.986901,  7.448573 )     1.64470258
  Sum of centres and spreads ( 20.476496, 35.466332,155.799215 )    39.12534381
 
    200    -0.154E-01     0.0824462255       39.1253300064      11.89  <-- CONV
        O_D=      0.0589624 O_OD=      6.9788276 O_TOT=     39.1253300 <-- SPRD
 Delta: O_D= -0.4703049E-04 O_OD= -0.1532464E-01 O_TOT= -0.1537167E-01 <-- DLTA
 ------------------------------------------------------------------------------

 Writing checkpoint file MoS2.chk... done

 Cycle:    250
  WF centre and spread    1  (  0.000002,  1.820206,  2.996139 )     1.52200946
  WF centre and spread    2  ( -0.000000,  1.807977,  2.996139 )     1.69698744
  WF centre and spread    3  (  0.000002,  1.829958,  2.996139 )     1.69961380
  WF centre and spread    4  (  0.000001,  1.707636,  2.996139 )     1.63587976
  WF centre and spread    5  ( -0.000004,  1.926928,  2.996139 )     1.63270533
  WF centre and spread    6  (  1.575113,  0.907973,  8.988416 )     1.52200956
  WF centre and spread    7  (  1.575116,  0.920202,  8.988416 )     1.69698754
  WF centre and spread    8  (  1.575113,  0.898222,  8.988416 )     1.69961383
  WF centre and spread    9  (  1.575114,  1.020543,  8.988416 )     1.63587992
  WF centre and spread   10  (  1.575119,  0.801251,  8.988416 )     1.63270528
  WF centre and spread   11  (  1.575644,  1.084553,  5.061234 )     1.00317064
  WF centre and spread   12  (  1.575327,  0.981120,  3.984145 )     1.31466349
  WF centre and spread   13  (  1.574355,  0.918807,  4.529234 )     1.68737590
  WF centre and spread   14  (  1.575132,  0.652974,  4.545387 )     1.58461695
  WF centre and spread   15  ( -0.000530,  1.643625, 11.053511 )     1.00317111
  WF centre and spread   16  ( -0.000213,  1.747059,  9.976423 )     1.31466410
  WF centre and spread   17  (  0.000763,  1.809373, 10.521511 )     1.68737563
  WF centre and spread   18  ( -0.000017,  2.075208, 10.537665 )     1.58461463
  WF centre and spread   19  (  1.575644,  1.084553,  0.931044 )     1.00317098
  WF centre and spread   20  (  1.575327,  0.981120,  2.008132 )     1.31466380
  WF centre and spread   21  (  1.574355,  0.918807,  1.463044 )     1.68737576
  WF centre and spread   22  (  1.575132,  0.652973,  1.446891 )     1.58461615
  WF centre and spread   23  ( -0.000530,  1.643624,  6.923322 )     1.00317104
  WF centre and spread   24  ( -0.000213,  1.747059,  8.000409 )     1.31466432
  WF centre and spread   25  (  0.000763,  1.809373,  7.455321 )     1.68737581
  WF centre and spread   26  ( -0.000017,  2.075209,  7.439168 )     1.58461398
  Sum of centres and spreads ( 20.476496, 35.466332,155.799215 )    38.73369621
 
    250    -0.504E-02     0.0490620882       38.7336823762      15.06  <-- CONV
        O_D=      0.0582385 O_OD=      6.5879038 O_TOT=     38.7336824 <-- SPRD
 Delta: O_D= -0.7800148E-04 O_OD= -0.4961331E-02 O_TOT= -0.5039333E-02 <-- DLTA
 ------------------------------------------------------------------------------
 Cycle:    300
  WF centre and spread    1  (  0.000004,  1.820746,  2.996139 )     1.52262734
  WF centre and spread    2  ( -0.000001,  1.807948,  2.996139 )     1.69800491
  WF centre and spread    3  (  0.000003,  1.829901,  2.996139 )     1.70047776
  WF centre and spread    4  (  0.000001,  1.706607,  2.996139 )     1.63716937
  WF centre and spread    5  ( -0.000007,  1.926634,  2.996139 )     1.63098288
  WF centre and spread    6  (  1.575111,  0.907433,  8.988416 )     1.52262731
  WF centre and spread    7  (  1.575116,  0.920231,  8.988416 )     1.69800503
  WF centre and spread    8  (  1.575112,  0.898278,  8.988416 )     1.70047780
  WF centre and spread    9  (  1.575114,  1.021572,  8.988416 )     1.63716954
  WF centre and spread   10  (  1.575123,  0.801546,  8.988416 )     1.63098283
  WF centre and spread   11  (  1.575842,  1.134365,  5.042575 )     1.06074829
  WF centre and spread   12  (  1.575505,  1.029285,  3.991066 )     1.29621953
  WF centre and spread   13  (  1.573933,  0.918860,  4.529221 )     1.68765869
  WF centre and spread   14  (  1.575176,  0.555307,  4.557671 )     1.48421867
  WF centre and spread   15  ( -0.000729,  1.593812, 11.034851 )     1.06074941
  WF centre and spread   16  ( -0.000391,  1.698893,  9.983344 )     1.29622090
  WF centre and spread   17  (  0.001185,  1.809319, 10.521499 )     1.68765796
  WF centre and spread   18  ( -0.000061,  2.172875, 10.549949 )     1.48421527
  WF centre and spread   19  (  1.575842,  1.134366,  0.949703 )     1.06074885
  WF centre and spread   20  (  1.575505,  1.029286,  2.001211 )     1.29622011
  WF centre and spread   21  (  1.573933,  0.918860,  1.463056 )     1.68765820
  WF centre and spread   22  (  1.575176,  0.555307,  1.434606 )     1.48421741
  WF centre and spread   23  ( -0.000729,  1.593812,  6.941981 )     1.06074890
  WF centre and spread   24  ( -0.000391,  1.698893,  7.993488 )     1.29622101
  WF centre and spread   25  (  0.001185,  1.809319,  7.455334 )     1.68765845
  WF centre and spread   26  ( -0.000061,  2.172875,  7.426883 )     1.48421438
  Sum of centres and spreads ( 20.476496, 35.466332,155.799215 )    38.49390080
 
    300    -0.370E-02     0.0400623444       38.4938869055      17.54  <-- CONV
        O_D=      0.0581589 O_OD=      6.3481880 O_TOT=     38.4938869 <-- SPRD
 Delta: O_D=  0.6087330E-04 O_OD= -0.3763488E-02 O_TOT= -0.3702615E-02 <-- DLTA
 ------------------------------------------------------------------------------

 Writing checkpoint file MoS2.chk... done

 Cycle:    350
  WF centre and spread    1  (  0.000005,  1.821195,  2.996139 )     1.52307587
  WF centre and spread    2  ( -0.000002,  1.807898,  2.996139 )     1.69831950
  WF centre and spread    3  (  0.000004,  1.829758,  2.996139 )     1.69994388
  WF centre and spread    4  (  0.000002,  1.705621,  2.996139 )     1.63817375
  WF centre and spread    5  ( -0.000011,  1.926362,  2.996139 )     1.62913746
  WF centre and spread    6  (  1.575110,  0.906984,  8.988416 )     1.52307583
  WF centre and spread    7  (  1.575117,  0.920281,  8.988416 )     1.69831963
  WF centre and spread    8  (  1.575111,  0.898422,  8.988416 )     1.69994391
  WF centre and spread    9  (  1.575113,  1.022558,  8.988416 )     1.63817391
  WF centre and spread   10  (  1.575127,  0.801818,  8.988416 )     1.62913742
  WF centre and spread   11  (  1.576078,  1.172682,  5.017218 )     1.10509385
  WF centre and spread   12  (  1.575711,  1.066217,  4.005375 )     1.31112786
  WF centre and spread   13  (  1.573395,  0.918906,  4.529216 )     1.68778306
  WF centre and spread   14  (  1.575273,  0.480607,  4.568945 )     1.37741671
  WF centre and spread   15  ( -0.000965,  1.555496, 11.009495 )     1.10509484
  WF centre and spread   16  ( -0.000598,  1.661962,  9.997653 )     1.31112930
  WF centre and spread   17  (  0.001726,  1.809273, 10.521493 )     1.68778247
  WF centre and spread   18  ( -0.000158,  2.247574, 10.561223 )     1.37741370
  WF centre and spread   19  (  1.576078,  1.172682,  0.975059 )     1.10509402
  WF centre and spread   20  (  1.575711,  1.066217,  1.986902 )     1.31112844
  WF centre and spread   21  (  1.573395,  0.918906,  1.463062 )     1.68778266
  WF centre and spread   22  (  1.575273,  0.480606,  1.423332 )     1.37741554
  WF centre and spread   23  ( -0.000965,  1.555496,  6.967338 )     1.10509436
  WF centre and spread   24  ( -0.000598,  1.661962,  7.979180 )     1.31112937
  WF centre and spread   25  (  0.001726,  1.809273,  7.455339 )     1.68778280
  WF centre and spread   26  ( -0.000158,  2.247575,  7.415609 )     1.37741275
  Sum of centres and spreads ( 20.476496, 35.466332,155.799215 )    38.30298290
 
    350    -0.242E-02     0.0326274722       38.3029689522      20.50  <-- CONV
        O_D=      0.0580927 O_OD=      6.1573362 O_TOT=     38.3029690 <-- SPRD
 Delta: O_D=  0.2311926E-04 O_OD= -0.2439504E-02 O_TOT= -0.2416385E-02 <-- DLTA
 ------------------------------------------------------------------------------
 Cycle:    400
  WF centre and spread    1  (  0.000007,  1.821509,  2.996139 )     1.52332102
  WF centre and spread    2  ( -0.000003,  1.807829,  2.996139 )     1.69889861
  WF centre and spread    3  (  0.000006,  1.829621,  2.996139 )     1.69948248
  WF centre and spread    4  (  0.000004,  1.704869,  2.996139 )     1.63918417
  WF centre and spread    5  ( -0.000016,  1.926151,  2.996139 )     1.62808173
  WF centre and spread    6  (  1.575108,  0.906670,  8.988416 )     1.52332086
  WF centre and spread    7  (  1.575118,  0.920351,  8.988416 )     1.69889874
  WF centre and spread    8  (  1.575109,  0.898558,  8.988416 )     1.69948252
  WF centre and spread    9  (  1.575111,  1.023310,  8.988416 )     1.63918432
  WF centre and spread   10  (  1.575132,  0.802028,  8.988416 )     1.62808171
  WF centre and spread   11  (  1.576375,  1.197128,  4.994063 )     1.14096733
  WF centre and spread   12  (  1.575964,  1.088518,  4.019467 )     1.33323232
  WF centre and spread   13  (  1.572669,  0.918939,  4.529215 )     1.68796812
  WF centre and spread   14  (  1.575447,  0.434416,  4.578102 )     1.29280046
  WF centre and spread   15  ( -0.001264,  1.531050, 10.986340 )     1.14096806
  WF centre and spread   16  ( -0.000851,  1.639662, 10.011745 )     1.33323391
  WF centre and spread   17  (  0.002453,  1.809240, 10.521493 )     1.68796734
  WF centre and spread   18  ( -0.000332,  2.293764, 10.570381 )     1.29279849
  WF centre and spread   19  (  1.576375,  1.197128,  0.998214 )     1.14096652
  WF centre and spread   20  (  1.575964,  1.088518,  1.972810 )     1.33323275
  WF centre and spread   21  (  1.572669,  0.918939,  1.463062 )     1.68796748
  WF centre and spread   22  (  1.575447,  0.434416,  1.414175 )     1.29279912
  WF centre and spread   23  ( -0.001264,  1.531050,  6.990493 )     1.14096663
  WF centre and spread   24  ( -0.000851,  1.639662,  7.965088 )     1.33323351
  WF centre and spread   25  (  0.002453,  1.809240,  7.455340 )     1.68796764
  WF centre and spread   26  ( -0.000332,  2.293764,  7.406452 )     1.29279737
  Sum of centres and spreads ( 20.476496, 35.466332,155.799215 )    38.19780322
 
    400    -0.144E-02     0.0248061507       38.1977892302      22.98  <-- CONV
        O_D=      0.0581392 O_OD=      6.0521100 O_TOT=     38.1977892 <-- SPRD
 Delta: O_D=  0.2196768E-04 O_OD= -0.1460416E-02 O_TOT= -0.1438448E-02 <-- DLTA
 ------------------------------------------------------------------------------

 Writing checkpoint file MoS2.chk... done

 Cycle:    450
  WF centre and spread    1  (  0.000010,  1.821706,  2.996139 )     1.52350084
  WF centre and spread    2  ( -0.000005,  1.807763,  2.996139 )     1.69964593
  WF centre and spread    3  (  0.000009,  1.829544,  2.996139 )     1.69946323
  WF centre and spread    4  (  0.000006,  1.704445,  2.996139 )     1.63970162
  WF centre and spread    5  ( -0.000023,  1.925986,  2.996139 )     1.62752745
  WF centre and spread    6  (  1.575105,  0.906473,  8.988416 )     1.52350087
  WF centre and spread    7  (  1.575120,  0.920416,  8.988416 )     1.69964605
  WF centre and spread    8  (  1.575106,  0.898635,  8.988416 )     1.69946325
  WF centre and spread    9  (  1.575110,  1.023735,  8.988416 )     1.63970175
  WF centre and spread   10  (  1.575138,  0.802194,  8.988416 )     1.62752744
  WF centre and spread   11  (  1.576773,  1.210875,  4.977339 )     1.16535374
  WF centre and spread   12  (  1.576292,  1.098921,  4.029257 )     1.35071638
  WF centre and spread   13  (  1.571669,  0.918961,  4.529226 )     1.68801256
  WF centre and spread   14  (  1.575718,  0.410649,  4.585099 )     1.24009793
  WF centre and spread   15  ( -0.001662,  1.517304, 10.969616 )     1.16535398
  WF centre and spread   16  ( -0.001181,  1.629258, 10.021534 )     1.35071705
  WF centre and spread   17  (  0.003456,  1.809219, 10.521504 )     1.68801223
  WF centre and spread   18  ( -0.000605,  2.317531, 10.577377 )     1.24009705
  WF centre and spread   19  (  1.576773,  1.210875,  1.014939 )     1.16535321
  WF centre and spread   20  (  1.576292,  1.098921,  1.963021 )     1.35071653
  WF centre and spread   21  (  1.571669,  0.918961,  1.463051 )     1.68801234
  WF centre and spread   22  (  1.575718,  0.410649,  1.407178 )     1.24009683
  WF centre and spread   23  ( -0.001662,  1.517304,  7.007217 )     1.16535333
  WF centre and spread   24  ( -0.001181,  1.629258,  7.955298 )     1.35071694
  WF centre and spread   25  (  0.003456,  1.809219,  7.455329 )     1.68801224
  WF centre and spread   26  ( -0.000605,  2.317531,  7.399455 )     1.24009601
  Sum of centres and spreads ( 20.476496, 35.466332,155.799215 )    38.15639680
 
    450    -0.534E-03     0.0157872102       38.1563827888      25.95  <-- CONV
        O_D=      0.0581634 O_OD=      6.0106794 O_TOT=     38.1563828 <-- SPRD
 Delta: O_D=  0.1112745E-04 O_OD= -0.5452070E-03 O_TOT= -0.5340795E-03 <-- DLTA
 ------------------------------------------------------------------------------
 Cycle:    500
  WF centre and spread    1  (  0.000014,  1.821831,  2.996139 )     1.52367341
  WF centre and spread    2  ( -0.000007,  1.807723,  2.996139 )     1.70016184
  WF centre and spread    3  (  0.000012,  1.829516,  2.996139 )     1.69959108
  WF centre and spread    4  (  0.000008,  1.704241,  2.996139 )     1.63975087
  WF centre and spread    5  ( -0.000031,  1.925884,  2.996139 )     1.62722509
  WF centre and spread    6  (  1.575101,  0.906348,  8.988416 )     1.52367348
  WF centre and spread    7  (  1.575122,  0.920456,  8.988416 )     1.70016195
  WF centre and spread    8  (  1.575103,  0.898664,  8.988416 )     1.69959111
  WF centre and spread    9  (  1.575107,  1.023938,  8.988416 )     1.63975100
  WF centre and spread   10  (  1.575147,  0.802295,  8.988416 )     1.62722509
  WF centre and spread   11  (  1.577274,  1.218296,  4.967314 )     1.17863820
  WF centre and spread   12  (  1.576702,  1.102274,  4.034194 )     1.36085827
  WF centre and spread   13  (  1.570395,  0.918972,  4.529239 )     1.68793851
  WF centre and spread   14  (  1.576078,  0.400069,  4.590225 )     1.21303260
  WF centre and spread   15  ( -0.002165,  1.509883, 10.959591 )     1.17863821
  WF centre and spread   16  ( -0.001592,  1.625906, 10.026471 )     1.36085861
  WF centre and spread   17  (  0.004734,  1.809207, 10.521517 )     1.68793819
  WF centre and spread   18  ( -0.000966,  2.328110, 10.582503 )     1.21303229
  WF centre and spread   19  (  1.577274,  1.218296,  1.024963 )     1.17863768
  WF centre and spread   20  (  1.576702,  1.102274,  1.958084 )     1.36085828
  WF centre and spread   21  (  1.570395,  0.918972,  1.463038 )     1.68793837
  WF centre and spread   22  (  1.576078,  0.400069,  1.402053 )     1.21303112
  WF centre and spread   23  ( -0.002165,  1.509883,  7.017242 )     1.17863764
  WF centre and spread   24  ( -0.001592,  1.625906,  7.950361 )     1.36085850
  WF centre and spread   25  (  0.004734,  1.809208,  7.455316 )     1.68793813
  WF centre and spread   26  ( -0.000966,  2.328110,  7.394329 )     1.21303086
  Sum of centres and spreads ( 20.476496, 35.466332,155.799215 )    38.14267036
 
    500    -0.181E-03     0.0090062239       38.1426563349      28.43  <-- CONV
        O_D=      0.0581582 O_OD=      5.9969581 O_TOT=     38.1426563 <-- SPRD
 Delta: O_D= -0.6042620E-05 O_OD= -0.1751866E-03 O_TOT= -0.1812292E-03 <-- DLTA
 ------------------------------------------------------------------------------

 Writing checkpoint file MoS2.chk... done

 Cycle:    550
  WF centre and spread    1  (  0.000019,  1.821933,  2.996139 )     1.52381005
  WF centre and spread    2  ( -0.000010,  1.807704,  2.996139 )     1.70041593
  WF centre and spread    3  (  0.000017,  1.829506,  2.996139 )     1.69967279
  WF centre and spread    4  (  0.000011,  1.704100,  2.996139 )     1.63969774
  WF centre and spread    5  ( -0.000043,  1.925848,  2.996139 )     1.62716581
  WF centre and spread    6  (  1.575096,  0.906247,  8.988416 )     1.52381016
  WF centre and spread    7  (  1.575126,  0.920475,  8.988416 )     1.70041603
  WF centre and spread    8  (  1.575098,  0.898673,  8.988416 )     1.69967282
  WF centre and spread    9  (  1.575104,  1.024079,  8.988416 )     1.63969786
  WF centre and spread   10  (  1.575158,  0.802332,  8.988416 )     1.62716582
  WF centre and spread   11  (  1.577972,  1.223333,  4.960674 )     1.18606044
  WF centre and spread   12  (  1.577271,  1.102513,  4.036409 )     1.36705858
  WF centre and spread   13  (  1.568614,  0.918978,  4.529247 )     1.68787405
  WF centre and spread   14  (  1.576587,  0.394888,  4.594656 )     1.19814284
  WF centre and spread   15  ( -0.002866,  1.504846, 10.952951 )     1.18606032
  WF centre and spread   16  ( -0.002162,  1.625667, 10.028686 )     1.36705871
  WF centre and spread   17  (  0.006520,  1.809201, 10.521525 )     1.68787361
  WF centre and spread   18  ( -0.001477,  2.333291, 10.586934 )     1.19814292
  WF centre and spread   19  (  1.577972,  1.223333,  1.031604 )     1.18606038
  WF centre and spread   20  (  1.577271,  1.102512,  1.955869 )     1.36705871
  WF centre and spread   21  (  1.568614,  0.918978,  1.463030 )     1.68787405
  WF centre and spread   22  (  1.576587,  0.394888,  1.397622 )     1.19814228
  WF centre and spread   23  ( -0.002866,  1.504845,  7.023882 )     1.18606026
  WF centre and spread   24  ( -0.002162,  1.625668,  7.948147 )     1.36705882
  WF centre and spread   25  (  0.006520,  1.809201,  7.455308 )     1.68787361
  WF centre and spread   26  ( -0.001477,  2.333291,  7.389898 )     1.19814237
  Sum of centres and spreads ( 20.476496, 35.466332,155.799215 )    38.13806697
 
    550    -0.529E-04     0.0050613666       38.1380529416      31.45  <-- CONV
        O_D=      0.0581730 O_OD=      5.9923399 O_TOT=     38.1380529 <-- SPRD
 Delta: O_D= -0.3148333E-05 O_OD= -0.4972159E-04 O_TOT= -0.5286992E-04 <-- DLTA
 ------------------------------------------------------------------------------
 Cycle:    600
  WF centre and spread    1  (  0.000027,  1.822025,  2.996139 )     1.52391991
  WF centre and spread    2  ( -0.000015,  1.807701,  2.996139 )     1.70043252
  WF centre and spread    3  (  0.000024,  1.829505,  2.996139 )     1.69964722
  WF centre and spread    4  (  0.000016,  1.703984,  2.996139 )     1.63957994
  WF centre and spread    5  ( -0.000060,  1.925856,  2.996139 )     1.62723291
  WF centre and spread    6  (  1.575088,  0.906155,  8.988416 )     1.52392002
  WF centre and spread    7  (  1.575130,  0.920479,  8.988416 )     1.70043262
  WF centre and spread    8  (  1.575091,  0.898674,  8.988416 )     1.69964725
  WF centre and spread    9  (  1.575099,  1.024195,  8.988416 )     1.63958006
  WF centre and spread   10  (  1.575175,  0.802324,  8.988416 )     1.62723292
  WF centre and spread   11  (  1.578966,  1.227234,  4.956038 )     1.18992420
  WF centre and spread   12  (  1.578079,  1.101081,  4.036961 )     1.37080729
  WF centre and spread   13  (  1.566080,  0.918983,  4.529252 )     1.68779766
  WF centre and spread   14  (  1.577314,  0.392453,  4.598722 )     1.19008374
  WF centre and spread   15  ( -0.003862,  1.500945, 10.948315 )     1.18992408
  WF centre and spread   16  ( -0.002972,  1.627099, 10.029238 )     1.37080740
  WF centre and spread   17  (  0.009061,  1.809197, 10.521529 )     1.68779686
  WF centre and spread   18  ( -0.002206,  2.335726, 10.591001 )     1.19008406
  WF centre and spread   19  (  1.578966,  1.227234,  1.036240 )     1.18992417
  WF centre and spread   20  (  1.578079,  1.101080,  1.955317 )     1.37080741
  WF centre and spread   21  (  1.566080,  0.918983,  1.463026 )     1.68779766
  WF centre and spread   22  (  1.577314,  0.392453,  1.393555 )     1.19008323
  WF centre and spread   23  ( -0.003862,  1.500945,  7.028518 )     1.18992404
  WF centre and spread   24  ( -0.002972,  1.627100,  7.947595 )     1.37080752
  WF centre and spread   25  (  0.009061,  1.809197,  7.455303 )     1.68779686
  WF centre and spread   26  ( -0.002206,  2.335726,  7.385832 )     1.19008356
  Sum of centres and spreads ( 20.476496, 35.466332,155.799215 )    38.13607513
 
    600    -0.244E-04     0.0032472979       38.1360610952      33.92  <-- CONV
        O_D=      0.0581998 O_OD=      5.9903213 O_TOT=     38.1360611 <-- SPRD
 Delta: O_D=  0.8949576E-06 O_OD= -0.2527414E-04 O_TOT= -0.2437918E-04 <-- DLTA
 ------------------------------------------------------------------------------

 Writing checkpoint file MoS2.chk... done

 Cycle:    650
  WF centre and spread    1  (  0.000037,  1.822109,  2.996139 )     1.52402376
  WF centre and spread    2  ( -0.000021,  1.807706,  2.996139 )     1.70032813
  WF centre and spread    3  (  0.000033,  1.829508,  2.996139 )     1.69957105
  WF centre and spread    4  (  0.000022,  1.703888,  2.996139 )     1.63942855
  WF centre and spread    5  ( -0.000082,  1.925884,  2.996139 )     1.62735793
  WF centre and spread    6  (  1.575078,  0.906070,  8.988416 )     1.52402388
  WF centre and spread    7  (  1.575136,  0.920474,  8.988416 )     1.70032822
  WF centre and spread    8  (  1.575082,  0.898671,  8.988416 )     1.69957109
  WF centre and spread    9  (  1.575093,  1.024292,  8.988416 )     1.63942866
  WF centre and spread   10  (  1.575197,  0.802295,  8.988416 )     1.62735794
  WF centre and spread   11  (  1.580316,  1.230434,  4.952666 )     1.19170025
  WF centre and spread   12  (  1.579176,  1.098861,  4.036609 )     1.37304803
  WF centre and spread   13  (  1.562635,  0.918989,  4.529256 )     1.68767093
  WF centre and spread   14  (  1.578303,  0.391471,  4.602418 )     1.18590721
  WF centre and spread   15  ( -0.005216,  1.497746, 10.944943 )     1.19170022
  WF centre and spread   16  ( -0.004073,  1.629319, 10.028887 )     1.37304822
  WF centre and spread   17  (  0.012517,  1.809191, 10.521534 )     1.68766946
  WF centre and spread   18  ( -0.003198,  2.336708, 10.594696 )     1.18590774
  WF centre and spread   19  (  1.580316,  1.230434,  1.039612 )     1.19170024
  WF centre and spread   20  (  1.579176,  1.098860,  1.955668 )     1.37304816
  WF centre and spread   21  (  1.562635,  0.918989,  1.463021 )     1.68767095
  WF centre and spread   22  (  1.578303,  0.391471,  1.389860 )     1.18590691
  WF centre and spread   23  ( -0.005216,  1.497745,  7.031890 )     1.19170021
  WF centre and spread   24  ( -0.004073,  1.629320,  7.947946 )     1.37304835
  WF centre and spread   25  (  0.012516,  1.809191,  7.455299 )     1.68766947
  WF centre and spread   26  ( -0.003198,  2.336708,  7.382137 )     1.18590745
  Sum of centres and spreads ( 20.476496, 35.466332,155.799215 )    38.13472302
 
    650    -0.199E-04     0.0029466513       38.1347089836      36.87  <-- CONV
        O_D=      0.0582271 O_OD=      5.9889419 O_TOT=     38.1347090 <-- SPRD
 Delta: O_D=  0.1450273E-05 O_OD= -0.2138664E-04 O_TOT= -0.1993637E-04 <-- DLTA
 ------------------------------------------------------------------------------
 Cycle:    700
  WF centre and spread    1  (  0.000052,  1.822192,  2.996139 )     1.52412330
  WF centre and spread    2  ( -0.000030,  1.807715,  2.996139 )     1.70015135
  WF centre and spread    3  (  0.000047,  1.829514,  2.996139 )     1.69946068
  WF centre and spread    4  (  0.000030,  1.703796,  2.996139 )     1.63926037
  WF centre and spread    5  ( -0.000114,  1.925926,  2.996139 )     1.62752638
  WF centre and spread    6  (  1.575063,  0.905987,  8.988416 )     1.52412342
  WF centre and spread    7  (  1.575145,  0.920464,  8.988416 )     1.70015144
  WF centre and spread    8  (  1.575068,  0.898666,  8.988416 )     1.69946073
  WF centre and spread    9  (  1.575085,  1.024383,  8.988416 )     1.63926048
  WF centre and spread   10  (  1.575230,  0.802253,  8.988416 )     1.62752640
  WF centre and spread   11  (  1.582267,  1.233405,  4.949803 )     1.19246146
  WF centre and spread   12  (  1.580763,  1.096146,  4.035796 )     1.37461726
  WF centre and spread   13  (  1.557657,  0.918999,  4.529263 )     1.68743520
  WF centre and spread   14  (  1.579732,  0.391189,  4.606055 )     1.18357535
  WF centre and spread   15  ( -0.007173,  1.494774, 10.942080 )     1.19246169
  WF centre and spread   16  ( -0.005664,  1.632034, 10.028074 )     1.37461767
  WF centre and spread   17  (  0.017509,  1.809180, 10.521541 )     1.68743235
  WF centre and spread   18  ( -0.004631,  2.336990, 10.598333 )     1.18357619
  WF centre and spread   19  (  1.582267,  1.233405,  1.042475 )     1.19246143
  WF centre and spread   20  (  1.580763,  1.096146,  1.956481 )     1.37461737
  WF centre and spread   21  (  1.557657,  0.918999,  1.463014 )     1.68743521
  WF centre and spread   22  (  1.579732,  0.391189,  1.386222 )     1.18357484
  WF centre and spread   23  ( -0.007173,  1.494774,  7.034753 )     1.19246167
  WF centre and spread   24  ( -0.005664,  1.632034,  7.948759 )     1.37461779
  WF centre and spread   25  (  0.017509,  1.809180,  7.455291 )     1.68743237
  WF centre and spread   26  ( -0.004631,  2.336990,  7.378499 )     1.18357569
  Sum of centres and spreads ( 20.476497, 35.466332,155.799215 )    38.13339810
 
    700    -0.300E-04     0.0035282180       38.1333840657      39.40  <-- CONV
        O_D=      0.0582584 O_OD=      5.9875857 O_TOT=     38.1333841 <-- SPRD
 Delta: O_D=  0.3717371E-05 O_OD= -0.3376214E-04 O_TOT= -0.3004477E-04 <-- DLTA
 ------------------------------------------------------------------------------

 Writing checkpoint file MoS2.chk... done

 Cycle:    750
  WF centre and spread    1  (  0.000074,  1.822276,  2.996139 )     1.52422976
  WF centre and spread    2  ( -0.000043,  1.807727,  2.996139 )     1.69996783
  WF centre and spread    3  (  0.000067,  1.829522,  2.996139 )     1.69936662
  WF centre and spread    4  (  0.000043,  1.703712,  2.996139 )     1.63907376
  WF centre and spread    5  ( -0.000162,  1.925972,  2.996139 )     1.62771847
  WF centre and spread    6  (  1.575041,  0.905904,  8.988416 )     1.52422989
  WF centre and spread    7  (  1.575159,  0.920453,  8.988416 )     1.69996792
  WF centre and spread    8  (  1.575048,  0.898658,  8.988416 )     1.69936669
  WF centre and spread    9  (  1.575072,  1.024467,  8.988416 )     1.63907385
  WF centre and spread   10  (  1.575278,  0.802207,  8.988416 )     1.62771850
  WF centre and spread   11  (  1.585136,  1.236274,  4.947152 )     1.19270322
  WF centre and spread   12  (  1.583094,  1.093108,  4.034755 )     1.37585560
  WF centre and spread   13  (  1.550339,  0.919021,  4.529280 )     1.68694939
  WF centre and spread   14  (  1.581833,  0.391311,  4.609698 )     1.18225675
  WF centre and spread   15  ( -0.010051,  1.491906, 10.939429 )     1.19270405
  WF centre and spread   16  ( -0.008002,  1.635072, 10.027033 )     1.37585650
  WF centre and spread   17  (  0.024849,  1.809158, 10.521558 )     1.68694371
  WF centre and spread   18  ( -0.006737,  2.336868, 10.601976 )     1.18225817
  WF centre and spread   19  (  1.585136,  1.236274,  1.045125 )     1.19270321
  WF centre and spread   20  (  1.583094,  1.093108,  1.957523 )     1.37585572
  WF centre and spread   21  (  1.550339,  0.919021,  1.462998 )     1.68694942
  WF centre and spread   22  (  1.581832,  0.391311,  1.382579 )     1.18225634
  WF centre and spread   23  ( -0.010051,  1.491906,  7.037404 )     1.19270403
  WF centre and spread   24  ( -0.008002,  1.635072,  7.949800 )     1.37585661
  WF centre and spread   25  (  0.024849,  1.809158,  7.455275 )     1.68694373
  WF centre and spread   26  ( -0.006737,  2.336868,  7.374856 )     1.18225775
  Sum of centres and spreads ( 20.476497, 35.466332,155.799215 )    38.13176748
 
    750    -0.457E-04     0.0045441650       38.1317534512      42.61  <-- CONV
        O_D=      0.0582897 O_OD=      5.9859237 O_TOT=     38.1317535 <-- SPRD
 Delta: O_D=  0.2859970E-05 O_OD= -0.4852354E-04 O_TOT= -0.4566357E-04 <-- DLTA
 ------------------------------------------------------------------------------
 Cycle:    800
  WF centre and spread    1  (  0.000102,  1.822351,  2.996139 )     1.52435254
  WF centre and spread    2  ( -0.000060,  1.807734,  2.996139 )     1.69986469
  WF centre and spread    3  (  0.000092,  1.829534,  2.996139 )     1.69935686
  WF centre and spread    4  (  0.000059,  1.703652,  2.996139 )     1.63885777
  WF centre and spread    5  ( -0.000225,  1.926005,  2.996139 )     1.62786894
  WF centre and spread    6  (  1.575012,  0.905829,  8.988416 )     1.52435269
  WF centre and spread    7  (  1.575176,  0.920445,  8.988416 )     1.69986479
  WF centre and spread    8  (  1.575022,  0.898646,  8.988416 )     1.69935699
  WF centre and spread    9  (  1.575056,  1.024527,  8.988416 )     1.63885783
  WF centre and spread   10  (  1.575340,  0.802174,  8.988416 )     1.62786900
  WF centre and spread   11  (  1.588889,  1.238782,  4.944811 )     1.19275019
  WF centre and spread   12  (  1.586142,  1.090189,  4.033762 )     1.37683284
  WF centre and spread   13  (  1.540769,  0.919060,  4.529313 )     1.68604019
  WF centre and spread   14  (  1.584579,  0.391654,  4.612978 )     1.18159221
  WF centre and spread   15  ( -0.013815,  1.489398, 10.937087 )     1.19275210
  WF centre and spread   16  ( -0.011059,  1.637991, 10.026040 )     1.37683465
  WF centre and spread   17  (  0.034446,  1.809119, 10.521591 )     1.68602935
  WF centre and spread   18  ( -0.009492,  2.336524, 10.605256 )     1.18159465
  WF centre and spread   19  (  1.588889,  1.238782,  1.047467 )     1.19275014
  WF centre and spread   20  (  1.586142,  1.090189,  1.958516 )     1.37683293
  WF centre and spread   21  (  1.540769,  0.919060,  1.462965 )     1.68604023
  WF centre and spread   22  (  1.584579,  0.391654,  1.379299 )     1.18159125
  WF centre and spread   23  ( -0.013815,  1.489398,  7.039746 )     1.19275205
  WF centre and spread   24  ( -0.011059,  1.637992,  7.950792 )     1.37683473
  WF centre and spread   25  (  0.034446,  1.809119,  7.455242 )     1.68602938
  WF centre and spread   26  ( -0.009492,  2.336524,  7.371576 )     1.18159368
  Sum of centres and spreads ( 20.476497, 35.466332,155.799215 )    38.12945266
 
    800    -0.680E-04     0.0056302394       38.1294386305      45.10  <-- CONV
        O_D=      0.0583091 O_OD=      5.9835895 O_TOT=     38.1294386 <-- SPRD
 Delta: O_D= -0.3452866E-05 O_OD= -0.6459588E-04 O_TOT= -0.6804874E-04 <-- DLTA
 ------------------------------------------------------------------------------

 Writing checkpoint file MoS2.chk... done

 Cycle:    850
  WF centre and spread    1  (  0.000143,  1.822424,  2.996139 )     1.52449130
  WF centre and spread    2  ( -0.000085,  1.807739,  2.996139 )     1.69982881
  WF centre and spread    3  (  0.000129,  1.829550,  2.996139 )     1.69942658
  WF centre and spread    4  (  0.000082,  1.703606,  2.996139 )     1.63861079
  WF centre and spread    5  ( -0.000314,  1.926032,  2.996139 )     1.62800831
  WF centre and spread    6  (  1.574971,  0.905756,  8.988416 )     1.52449150
  WF centre and spread    7  (  1.575200,  0.920440,  8.988416 )     1.69982890
  WF centre and spread    8  (  1.574986,  0.898629,  8.988416 )     1.69942679
  WF centre and spread    9  (  1.575033,  1.024573,  8.988416 )     1.63861080
  WF centre and spread   10  (  1.575430,  0.802148,  8.988416 )     1.62800840
  WF centre and spread   11  (  1.594225,  1.241172,  4.942415 )     1.19284419
  WF centre and spread   12  (  1.590471,  1.087148,  4.032834 )     1.37785230
  WF centre and spread   13  (  1.527169,  0.919135,  4.529378 )     1.68425267
  WF centre and spread   14  (  1.588483,  0.392198,  4.616223 )     1.18131706
  WF centre and spread   15  ( -0.019166,  1.487009, 10.934689 )     1.19284827
  WF centre and spread   16  ( -0.015401,  1.641033, 10.025113 )     1.37785589
  WF centre and spread   17  (  0.048085,  1.809044, 10.521656 )     1.68423169
  WF centre and spread   18  ( -0.013407,  2.335979, 10.608500 )     1.18132148
  WF centre and spread   19  (  1.594225,  1.241172,  1.049863 )     1.19284413
  WF centre and spread   20  (  1.590471,  1.087148,  1.959444 )     1.37785237
  WF centre and spread   21  (  1.527170,  0.919135,  1.462900 )     1.68425275
  WF centre and spread   22  (  1.588483,  0.392198,  1.376055 )     1.18131599
  WF centre and spread   23  ( -0.019165,  1.487009,  7.042143 )     1.19284821
  WF centre and spread   24  ( -0.015401,  1.641033,  7.951719 )     1.37785596
  WF centre and spread   25  (  0.048085,  1.809044,  7.455176 )     1.68423175
  WF centre and spread   26  ( -0.013407,  2.335979,  7.368332 )     1.18132041
  Sum of centres and spreads ( 20.476497, 35.466332,155.799215 )    38.12577728
 
    850    -0.876E-04     0.0064385400       38.1257632465      48.43  <-- CONV
        O_D=      0.0583238 O_OD=      5.9798994 O_TOT=     38.1257632 <-- SPRD
 Delta: O_D= -0.3901563E-05 O_OD= -0.8369247E-04 O_TOT= -0.8759403E-04 <-- DLTA
 ------------------------------------------------------------------------------
 Cycle:    900
  WF centre and spread    1  (  0.000201,  1.822493,  2.996139 )     1.52462785
  WF centre and spread    2  ( -0.000119,  1.807745,  2.996139 )     1.69978385
  WF centre and spread    3  (  0.000180,  1.829569,  2.996139 )     1.69950489
  WF centre and spread    4  (  0.000114,  1.703564,  2.996139 )     1.63836637
  WF centre and spread    5  ( -0.000440,  1.926062,  2.996139 )     1.62817208
  WF centre and spread    6  (  1.574913,  0.905686,  8.988416 )     1.52462813
  WF centre and spread    7  (  1.575235,  0.920434,  8.988416 )     1.69978394
  WF centre and spread    8  (  1.574934,  0.898610,  8.988416 )     1.69950529
  WF centre and spread    9  (  1.575001,  1.024615,  8.988416 )     1.63836627
  WF centre and spread   10  (  1.575556,  0.802118,  8.988416 )     1.62817227
  WF centre and spread   11  (  1.601786,  1.243352,  4.939836 )     1.19323971
  WF centre and spread   12  (  1.596598,  1.083980,  4.032104 )     1.37915344
  WF centre and spread   13  (  1.507912,  0.919280,  4.529504 )     1.68075241
  WF centre and spread   14  (  1.594011,  0.393004,  4.619389 )     1.18151165
  WF centre and spread   15  ( -0.026747,  1.484831, 10.932108 )     1.19324803
  WF centre and spread   16  ( -0.021545,  1.644202, 10.024387 )     1.37916054
  WF centre and spread   17  (  0.067396,  1.808897, 10.521783 )     1.68071160
  WF centre and spread   18  ( -0.018950,  2.335171, 10.611665 )     1.18151996
  WF centre and spread   19  (  1.601785,  1.243352,  1.052441 )     1.19323953
  WF centre and spread   20  (  1.596598,  1.083980,  1.960173 )     1.37915340
  WF centre and spread   21  (  1.507913,  0.919280,  1.462773 )     1.68075253
  WF centre and spread   22  (  1.594011,  0.393004,  1.372889 )     1.18150875
  WF centre and spread   23  ( -0.026747,  1.484831,  7.044724 )     1.19324786
  WF centre and spread   24  ( -0.021545,  1.644203,  7.952446 )     1.37916051
  WF centre and spread   25  (  0.067396,  1.808897,  7.455049 )     1.68071169
  WF centre and spread   26  ( -0.018950,  2.335171,  7.365167 )     1.18151706
  Sum of centres and spreads ( 20.476497, 35.466332,155.799215 )    38.11949962
 
    900    -0.132E-03     0.0074658480       38.1194855869      50.93  <-- CONV
        O_D=      0.0583440 O_OD=      5.9736015 O_TOT=     38.1194856 <-- SPRD
 Delta: O_D=  0.2012734E-05 O_OD= -0.1337558E-03 O_TOT= -0.1317431E-03 <-- DLTA
 ------------------------------------------------------------------------------

 Writing checkpoint file MoS2.chk... done

 Cycle:    950
  WF centre and spread    1  (  0.000277,  1.822554,  2.996139 )     1.52474917
  WF centre and spread    2  ( -0.000165,  1.807757,  2.996139 )     1.69960533
  WF centre and spread    3  (  0.000248,  1.829588,  2.996139 )     1.69947024
  WF centre and spread    4  (  0.000155,  1.703523,  2.996139 )     1.63814611
  WF centre and spread    5  ( -0.000607,  1.926104,  2.996139 )     1.62836748
  WF centre and spread    6  (  1.574837,  0.905626,  8.988416 )     1.52474959
  WF centre and spread    7  (  1.575281,  0.920423,  8.988416 )     1.69960541
  WF centre and spread    8  (  1.574866,  0.898592,  8.988416 )     1.69947097
  WF centre and spread    9  (  1.574960,  1.024656,  8.988416 )     1.63814582
  WF centre and spread   10  (  1.575724,  0.802075,  8.988416 )     1.62836781
  WF centre and spread   11  (  1.611750,  1.245058,  4.937041 )     1.19425846
  WF centre and spread   12  (  1.604655,  1.080806,  4.031792 )     1.38091743
  WF centre and spread   13  (  1.482564,  0.919543,  4.529732 )     1.67438393
  WF centre and spread   14  (  1.601284,  0.394167,  4.622249 )     1.18237157
  WF centre and spread   15  ( -0.036738,  1.483129, 10.929309 )     1.19427440
  WF centre and spread   16  ( -0.029623,  1.647378, 10.024079 )     1.38093084
  WF centre and spread   17  (  0.092812,  1.808633, 10.522012 )     1.67430792
  WF centre and spread   18  ( -0.026243,  2.334004, 10.614524 )     1.18238686
  WF centre and spread   19  (  1.611749,  1.245058,  1.055237 )     1.19425824
  WF centre and spread   20  (  1.604655,  1.080806,  1.960485 )     1.38091736
  WF centre and spread   21  (  1.482565,  0.919543,  1.462546 )     1.67438417
  WF centre and spread   22  (  1.601284,  0.394167,  1.370029 )     1.18236819
  WF centre and spread   23  ( -0.036738,  1.483129,  7.047524 )     1.19427420
  WF centre and spread   24  ( -0.029623,  1.647378,  7.952754 )     1.38093077
  WF centre and spread   25  (  0.092811,  1.808633,  7.454821 )     1.67430808
  WF centre and spread   26  ( -0.026243,  2.334004,  7.362308 )     1.18238350
  Sum of centres and spreads ( 20.476498, 35.466332,155.799215 )    38.10833387
 
    950    -0.231E-03     0.0099853575       38.1083198355      53.86  <-- CONV
        O_D=      0.0583658 O_OD=      5.9624140 O_TOT=     38.1083198 <-- SPRD
 Delta: O_D=  0.4212076E-05 O_OD= -0.2348109E-03 O_TOT= -0.2305988E-03 <-- DLTA
 ------------------------------------------------------------------------------
 Cycle:   1000
  WF centre and spread    1  (  0.000382,  1.822604,  2.996139 )     1.52485488
  WF centre and spread    2  ( -0.000229,  1.807777,  2.996139 )     1.69924428
  WF centre and spread    3  (  0.000341,  1.829608,  2.996139 )     1.69930957
  WF centre and spread    4  (  0.000211,  1.703475,  2.996139 )     1.63798923
  WF centre and spread    5  ( -0.000840,  1.926174,  2.996139 )     1.62868773
  WF centre and spread    6  (  1.574732,  0.905575,  8.988416 )     1.52485556
  WF centre and spread    7  (  1.575344,  0.920402,  8.988416 )     1.69924435
  WF centre and spread    8  (  1.574774,  0.898571,  8.988416 )     1.69931090
  WF centre and spread    9  (  1.574903,  1.024704,  8.988416 )     1.63798860
  WF centre and spread   10  (  1.575958,  0.802005,  8.988416 )     1.62868834
  WF centre and spread   11  (  1.625579,  1.246145,  4.933508 )     1.19654497
  WF centre and spread   12  (  1.615798,  1.077262,  4.032186 )     1.38382157
  WF centre and spread   13  (  1.447467,  0.920049,  4.530168 )     1.66224300
  WF centre and spread   14  (  1.611343,  0.396064,  4.624920 )     1.18446860
  WF centre and spread   15  ( -0.050601,  1.482048, 10.925768 )     1.19657499
  WF centre and spread   16  ( -0.040793,  1.650926, 10.024481 )     1.38384662
  WF centre and spread   17  (  0.127994,  1.808125, 10.522451 )     1.66210332
  WF centre and spread   18  ( -0.036326,  2.332099, 10.617193 )     1.18449679
  WF centre and spread   19  (  1.625579,  1.246146,  1.058769 )     1.19654442
  WF centre and spread   20  (  1.615798,  1.077262,  1.960091 )     1.38382117
  WF centre and spread   21  (  1.447468,  0.920049,  1.462110 )     1.66224338
  WF centre and spread   22  (  1.611343,  0.396064,  1.367357 )     1.18445961
  WF centre and spread   23  ( -0.050601,  1.482048,  7.051064 )     1.19657446
  WF centre and spread   24  ( -0.040793,  1.650926,  7.952352 )     1.38384624
  WF centre and spread   25  (  0.127993,  1.808125,  7.454382 )     1.66210356
  WF centre and spread   26  ( -0.036325,  2.332099,  7.359639 )     1.18448784
  Sum of centres and spreads ( 20.476498, 35.466332,155.799215 )    38.08835398
 
   1000    -0.541E-03     0.0150939093       38.0883399333      56.35  <-- CONV
        O_D=      0.0584096 O_OD=      5.9423903 O_TOT=     38.0883399 <-- SPRD
 Delta: O_D=  0.1356147E-04 O_OD= -0.5543062E-03 O_TOT= -0.5407448E-03 <-- DLTA
 ------------------------------------------------------------------------------

 Writing checkpoint file MoS2.chk... done

 Cycle:   1050
  WF centre and spread    1  (  0.000522,  1.822638,  2.996139 )     1.52501205
  WF centre and spread    2  ( -0.000315,  1.807797,  2.996139 )     1.69896668
  WF centre and spread    3  (  0.000463,  1.829649,  2.996139 )     1.69933888
  WF centre and spread    4  (  0.000285,  1.703463,  2.996139 )     1.63787609
  WF centre and spread    5  ( -0.001159,  1.926248,  2.996139 )     1.62916244
  WF centre and spread    6  (  1.574592,  0.905542,  8.988416 )     1.52501315
  WF centre and spread    7  (  1.575431,  0.920382,  8.988416 )     1.69896674
  WF centre and spread    8  (  1.574651,  0.898530,  8.988416 )     1.69934121
  WF centre and spread    9  (  1.574830,  1.024716,  8.988416 )     1.63787487
  WF centre and spread   10  (  1.576277,  0.801931,  8.988416 )     1.62916349
  WF centre and spread   11  (  1.644271,  1.246081,  4.928638 )     1.20119848
  WF centre and spread   12  (  1.630759,  1.073071,  4.033905 )     1.38878248
  WF centre and spread   13  (  1.400255,  0.921009,  4.531005 )     1.63963454
  WF centre and spread   14  (  1.624833,  0.399285,  4.627216 )     1.18877710
  WF centre and spread   15  ( -0.069331,  1.482125, 10.920885 )     1.20125277
  WF centre and spread   16  ( -0.055783,  1.655123, 10.026213 )     1.38882762
  WF centre and spread   17  (  0.175298,  1.807159, 10.523292 )     1.63938946
  WF centre and spread   18  ( -0.049841,  2.328864, 10.619485 )     1.18882750
  WF centre and spread   19  (  1.644270,  1.246081,  1.063639 )     1.20119785
  WF centre and spread   20  (  1.630758,  1.073071,  1.958373 )     1.38878201
  WF centre and spread   21  (  1.400257,  0.921009,  1.461272 )     1.63963523
  WF centre and spread   22  (  1.624832,  0.399285,  1.365061 )     1.18876802
  WF centre and spread   23  ( -0.069330,  1.482125,  7.055948 )     1.20125219
  WF centre and spread   24  ( -0.055783,  1.655124,  7.950620 )     1.38882720
  WF centre and spread   25  (  0.175297,  1.807159,  7.453540 )     1.63938989
  WF centre and spread   26  ( -0.049841,  2.328865,  7.357347 )     1.18881848
  Sum of centres and spreads ( 20.476498, 35.466332,155.799215 )    38.05407641
 
   1050    -0.104E-02     0.0219506410       38.0540623522      59.29  <-- CONV
        O_D=      0.0584681 O_OD=      5.9080543 O_TOT=     38.0540624 <-- SPRD
 Delta: O_D=  0.1480226E-04 O_OD= -0.1059388E-02 O_TOT= -0.1044586E-02 <-- DLTA
 ------------------------------------------------------------------------------
 Cycle:   1100
  WF centre and spread    1  (  0.000676,  1.822643,  2.996139 )     1.52527124
  WF centre and spread    2  ( -0.000414,  1.807805,  2.996139 )     1.69894268
  WF centre and spread    3  (  0.000595,  1.829720,  2.996139 )     1.69971722
  WF centre and spread    4  (  0.000363,  1.703557,  2.996139 )     1.63736237
  WF centre and spread    5  ( -0.001525,  1.926265,  2.996139 )     1.62931111
  WF centre and spread    6  (  1.574437,  0.905537,  8.988416 )     1.52527285
  WF centre and spread    7  (  1.575531,  0.920375,  8.988416 )     1.69894272
  WF centre and spread    8  (  1.574518,  0.898459,  8.988416 )     1.69972077
  WF centre and spread    9  (  1.574751,  1.024621,  8.988416 )     1.63736039
  WF centre and spread   10  (  1.576643,  0.801914,  8.988416 )     1.62931271
  WF centre and spread   11  (  1.665365,  1.244396,  4.922459 )     1.20861519
  WF centre and spread   12  (  1.647437,  1.068456,  4.037294 )     1.39559996
  WF centre and spread   13  (  1.347455,  0.922529,  4.532340 )     1.60533603
  WF centre and spread   14  (  1.639821,  0.403973,  4.628714 )     1.19558730
  WF centre and spread   15  ( -0.090452,  1.483826, 10.914688 )     1.20870103
  WF centre and spread   16  ( -0.072481,  1.659746, 10.029619 )     1.39567127
  WF centre and spread   17  (  0.228163,  1.805632, 10.524632 )     1.60496399
  WF centre and spread   18  ( -0.064846,  2.324159, 10.620977 )     1.19566649
  WF centre and spread   19  (  1.665364,  1.244396,  1.069818 )     1.20861384
  WF centre and spread   20  (  1.647437,  1.068456,  1.954984 )     1.39559877
  WF centre and spread   21  (  1.347457,  0.922529,  1.459938 )     1.60533680
  WF centre and spread   22  (  1.639820,  0.403973,  1.363564 )     1.19556612
  WF centre and spread   23  ( -0.090452,  1.483826,  7.062144 )     1.20869977
  WF centre and spread   24  ( -0.072481,  1.659746,  7.947213 )     1.39567016
  WF centre and spread   25  (  0.228162,  1.805633,  7.452200 )     1.60496437
  WF centre and spread   26  ( -0.064846,  2.324160,  7.355855 )     1.19564539
  Sum of centres and spreads ( 20.476498, 35.466332,155.799215 )    38.00145054
 
[...]
  WF centre and spread   22  (  1.576560,  0.447906,  1.303920 )     1.27280293
  WF centre and spread   23  ( -0.393678,  1.587825,  7.281011 )     1.27353499
  WF centre and spread   24  ( -0.007045,  1.811691,  7.946946 )     1.50052723
  WF centre and spread   25  (  0.402002,  1.594458,  7.292881 )     1.27316984
  WF centre and spread   26  ( -0.001444,  2.280273,  7.296198 )     1.27280329
  Sum of centres and spreads ( 20.476496, 35.466332,155.799215 )    37.65221928
 
   6850    -0.214E-06     0.0001892007       37.6522051029     374.27  <-- CONV
        O_D=      0.0594142 O_OD=      5.5052509 O_TOT=     37.6522051 <-- SPRD
 Delta: O_D= -0.9286261E-06 O_OD=  0.7143972E-06 O_TOT= -0.2142289E-06 <-- DLTA
 ------------------------------------------------------------------------------
 Cycle:   6900
  WF centre and spread    1  (  0.002718,  1.825458,  2.996139 )     1.53934149
  WF centre and spread    2  ( -0.000059,  1.807744,  2.996139 )     1.69374272
  WF centre and spread    3  (  0.000037,  1.829843,  2.996139 )     1.69358855
  WF centre and spread    4  (  0.004692,  1.701571,  2.996139 )     1.62713036
  WF centre and spread    5  ( -0.007758,  1.927444,  2.996139 )     1.63223393
  WF centre and spread    6  (  1.572397,  0.902722,  8.988416 )     1.53934160
  WF centre and spread    7  (  1.575174,  0.920435,  8.988416 )     1.69374284
  WF centre and spread    8  (  1.575078,  0.898336,  8.988416 )     1.69358858
  WF centre and spread    9  (  1.570423,  1.026609,  8.988416 )     1.62713049
  WF centre and spread   10  (  1.582874,  0.800735,  8.988416 )     1.63223391
  WF centre and spread   11  (  1.968881,  1.140300,  4.703403 )     1.27353055
  WF centre and spread   12  (  1.582029,  0.916427,  4.037607 )     1.50052995
  WF centre and spread   13  (  1.173198,  1.133820,  4.691759 )     1.27317040
  WF centre and spread   14  (  1.576516,  0.447924,  4.688416 )     1.27280360
  WF centre and spread   15  ( -0.393767,  1.587881, 10.695679 )     1.27353014
  WF centre and spread   16  ( -0.006913,  1.811753, 10.029884 )     1.50052987
  WF centre and spread   17  (  0.401916,  1.594358, 10.684038 )     1.27317037
  WF centre and spread   18  ( -0.001400,  2.280255, 10.680694 )     1.27280397
  WF centre and spread   19  (  1.968881,  1.140300,  1.288874 )     1.27353056
  WF centre and spread   20  (  1.582029,  0.916426,  1.954671 )     1.50053001
  WF centre and spread   21  (  1.173198,  1.133820,  1.300518 )     1.27317041
  WF centre and spread   22  (  1.576516,  0.447924,  1.303861 )     1.27280363
  WF centre and spread   23  ( -0.393767,  1.587881,  7.281153 )     1.27353015
  WF centre and spread   24  ( -0.006913,  1.811753,  7.946948 )     1.50052993
  WF centre and spread   25  (  0.401916,  1.594358,  7.292795 )     1.27317038
  WF centre and spread   26  ( -0.001400,  2.280255,  7.296139 )     1.27280399
  Sum of centres and spreads ( 20.476496, 35.466332,155.799215 )    37.65221238
 
   6900    -0.253E-06     0.0005089734       37.6521981996     376.58  <-- CONV
        O_D=      0.0594085 O_OD=      5.5052497 O_TOT=     37.6521982 <-- SPRD
 Delta: O_D= -0.3201570E-07 O_OD= -0.2207621E-06 O_TOT= -0.2527778E-06 <-- DLTA
 ------------------------------------------------------------------------------

 Writing checkpoint file MoS2.chk... done

 Cycle:   6950
  WF centre and spread    1  (  0.002728,  1.825460,  2.996139 )     1.53935252
  WF centre and spread    2  ( -0.000058,  1.807744,  2.996139 )     1.69374241
  WF centre and spread    3  (  0.000037,  1.829843,  2.996139 )     1.69358832
  WF centre and spread    4  (  0.004698,  1.701569,  2.996139 )     1.62711748
  WF centre and spread    5  ( -0.007773,  1.927443,  2.996139 )     1.63223540
  WF centre and spread    6  (  1.572387,  0.902719,  8.988416 )     1.53935263
  WF centre and spread    7  (  1.575174,  0.920435,  8.988416 )     1.69374253
  WF centre and spread    8  (  1.575078,  0.898336,  8.988416 )     1.69358835
  WF centre and spread    9  (  1.570417,  1.026610,  8.988416 )     1.62711761
  WF centre and spread   10  (  1.582888,  0.800736,  8.988416 )     1.63223537
  WF centre and spread   11  (  1.968939,  1.140264,  4.703312 )     1.27352747
  WF centre and spread   12  (  1.581944,  0.916387,  4.037605 )     1.50053172
  WF centre and spread   13  (  1.173253,  1.133884,  4.691814 )     1.27317076
  WF centre and spread   14  (  1.576487,  0.447936,  4.688454 )     1.27280404
  WF centre and spread   15  ( -0.393824,  1.587916, 10.695589 )     1.27352707
  WF centre and spread   16  ( -0.006828,  1.811793, 10.029882 )     1.50053164
  WF centre and spread   17  (  0.401861,  1.594295, 10.684093 )     1.27317072
  WF centre and spread   18  ( -0.001372,  2.280244, 10.680732 )     1.27280441
  WF centre and spread   19  (  1.968939,  1.140264,  1.288965 )     1.27352748
  WF centre and spread   20  (  1.581944,  0.916387,  1.954673 )     1.50053179
  WF centre and spread   21  (  1.173253,  1.133884,  1.300464 )     1.27317077
  WF centre and spread   22  (  1.576487,  0.447936,  1.303823 )     1.27280407
  WF centre and spread   23  ( -0.393825,  1.587916,  7.281244 )     1.27352708
  WF centre and spread   24  ( -0.006828,  1.811793,  7.946950 )     1.50053171
  WF centre and spread   25  (  0.401861,  1.594295,  7.292740 )     1.27317073
  WF centre and spread   26  ( -0.001372,  2.280244,  7.296101 )     1.27280443
  Sum of centres and spreads ( 20.476496, 35.466332,155.799215 )    37.65220850
 
   6950    -0.763E-07     0.0003469273       37.6521943205     379.23  <-- CONV
        O_D=      0.0594047 O_OD=      5.5052496 O_TOT=     37.6521943 <-- SPRD
 Delta: O_D= -0.1576539E-07 O_OD= -0.6050383E-07 O_TOT= -0.7626922E-07 <-- DLTA
 ------------------------------------------------------------------------------
 Cycle:   7000
  WF centre and spread    1  (  0.002742,  1.825463,  2.996139 )     1.53936677
  WF centre and spread    2  ( -0.000058,  1.807744,  2.996139 )     1.69374202
  WF centre and spread    3  (  0.000036,  1.829844,  2.996139 )     1.69358805
  WF centre and spread    4  (  0.004705,  1.701568,  2.996139 )     1.62710086
  WF centre and spread    5  ( -0.007792,  1.927442,  2.996139 )     1.63223726
  WF centre and spread    6  (  1.572373,  0.902716,  8.988416 )     1.53936689
  WF centre and spread    7  (  1.575173,  0.920435,  8.988416 )     1.69374214
  WF centre and spread    8  (  1.575079,  0.898336,  8.988416 )     1.69358808
  WF centre and spread    9  (  1.570410,  1.026612,  8.988416 )     1.62710100
  WF centre and spread   10  (  1.582908,  0.800737,  8.988416 )     1.63223724
  WF centre and spread   11  (  1.969012,  1.140219,  4.703196 )     1.27352356
  WF centre and spread   12  (  1.581836,  0.916336,  4.037603 )     1.50053398
  WF centre and spread   13  (  1.173323,  1.133965,  4.691884 )     1.27317120
  WF centre and spread   14  (  1.576451,  0.447951,  4.688503 )     1.27280459
  WF centre and spread   15  ( -0.393898,  1.587962, 10.695472 )     1.27352316
  WF centre and spread   16  ( -0.006720,  1.811844, 10.029880 )     1.50053390
  WF centre and spread   17  (  0.401791,  1.594214, 10.684163 )     1.27317117
  WF centre and spread   18  ( -0.001336,  2.280229, 10.680780 )     1.27280496
  WF centre and spread   19  (  1.969012,  1.140219,  1.289082 )     1.27352358
  WF centre and spread   20  (  1.581836,  0.916336,  1.954675 )     1.50053405
  WF centre and spread   21  (  1.173323,  1.133965,  1.300393 )     1.27317121
  WF centre and spread   22  (  1.576451,  0.447951,  1.303775 )     1.27280462
  WF centre and spread   23  ( -0.393898,  1.587962,  7.281360 )     1.27352317
  WF centre and spread   24  ( -0.006720,  1.811844,  7.946952 )     1.50053397
  WF centre and spread   25  (  0.401791,  1.594213,  7.292670 )     1.27317118
  WF centre and spread   26  ( -0.001336,  2.280229,  7.296052 )     1.27280498
  Sum of centres and spreads ( 20.476496, 35.466332,155.799215 )    37.65220359
 
   7000    -0.312E-07     0.0001332221       37.6521894150     381.47  <-- CONV
        O_D=      0.0593999 O_OD=      5.5052495 O_TOT=     37.6521894 <-- SPRD
 Delta: O_D= -0.2173672E-07 O_OD= -0.9453702E-08 O_TOT= -0.3119043E-07 <-- DLTA
 ------------------------------------------------------------------------------

 Writing checkpoint file MoS2.chk... done

 Cycle:   7050
  WF centre and spread    1  (  0.002757,  1.825467,  2.996139 )     1.53938180
  WF centre and spread    2  ( -0.000057,  1.807744,  2.996139 )     1.69374167
  WF centre and spread    3  (  0.000036,  1.829844,  2.996139 )     1.69358776
  WF centre and spread    4  (  0.004713,  1.701566,  2.996139 )     1.62708334
  WF centre and spread    5  ( -0.007813,  1.927441,  2.996139 )     1.63223911
  WF centre and spread    6  (  1.572358,  0.902713,  8.988416 )     1.53938191
  WF centre and spread    7  (  1.575172,  0.920435,  8.988416 )     1.69374180
  WF centre and spread    8  (  1.575079,  0.898336,  8.988416 )     1.69358779
  WF centre and spread    9  (  1.570402,  1.026613,  8.988416 )     1.62708347
  WF centre and spread   10  (  1.582929,  0.800738,  8.988416 )     1.63223909
  WF centre and spread   11  (  1.969087,  1.140172,  4.703075 )     1.27351955
  WF centre and spread   12  (  1.581724,  0.916283,  4.037601 )     1.50053624
  WF centre and spread   13  (  1.173396,  1.134049,  4.691957 )     1.27317170
  WF centre and spread   14  (  1.576414,  0.447966,  4.688553 )     1.27280524
  WF centre and spread   15  ( -0.393973,  1.588009, 10.695352 )     1.27351915
  WF centre and spread   16  ( -0.006607,  1.811896, 10.029878 )     1.50053616
  WF centre and spread   17  (  0.401718,  1.594130, 10.684235 )     1.27317167
  WF centre and spread   18  ( -0.001299,  2.280213, 10.680831 )     1.27280560
  WF centre and spread   19  (  1.969088,  1.140172,  1.289202 )     1.27351956
  WF centre and spread   20  (  1.581724,  0.916283,  1.954677 )     1.50053630
  WF centre and spread   21  (  1.173396,  1.134049,  1.300321 )     1.27317172
  WF centre and spread   22  (  1.576414,  0.447966,  1.303724 )     1.27280526
  WF centre and spread   23  ( -0.393973,  1.588009,  7.281481 )     1.27351916
  WF centre and spread   24  ( -0.006607,  1.811897,  7.946954 )     1.50053622
  WF centre and spread   25  (  0.401718,  1.594130,  7.292597 )     1.27317168
  WF centre and spread   26  ( -0.001299,  2.280213,  7.296002 )     1.27280563
  Sum of centres and spreads ( 20.476496, 35.466332,155.799215 )    37.65219857
 
   7050    -0.757E-07     0.0001448713       37.6521843906     384.11  <-- CONV
        O_D=      0.0593949 O_OD=      5.5052495 O_TOT=     37.6521844 <-- SPRD
 Delta: O_D= -0.9474861E-07 O_OD=  0.1904601E-07 O_TOT= -0.7570259E-07 <-- DLTA
 ------------------------------------------------------------------------------
 Cycle:   7100
  WF centre and spread    1  (  0.002779,  1.825471,  2.996139 )     1.53940377
  WF centre and spread    2  ( -0.000056,  1.807744,  2.996139 )     1.69374103
  WF centre and spread    3  (  0.000035,  1.829844,  2.996139 )     1.69358736
  WF centre and spread    4  (  0.004724,  1.701564,  2.996139 )     1.62705787
  WF centre and spread    5  ( -0.007844,  1.927440,  2.996139 )     1.63224197
  WF centre and spread    6  (  1.572336,  0.902708,  8.988416 )     1.53940388
  WF centre and spread    7  (  1.575171,  0.920435,  8.988416 )     1.69374115
  WF centre and spread    8  (  1.575080,  0.898335,  8.988416 )     1.69358739
  WF centre and spread    9  (  1.570391,  1.026616,  8.988416 )     1.62705800
  WF centre and spread   10  (  1.582959,  0.800739,  8.988416 )     1.63224195
  WF centre and spread   11  (  1.969197,  1.140104,  4.702901 )     1.27351372
  WF centre and spread   12  (  1.581561,  0.916207,  4.037598 )     1.50053964
  WF centre and spread   13  (  1.173501,  1.134170,  4.692062 )     1.27317237
  WF centre and spread   14  (  1.576361,  0.447988,  4.688626 )     1.27280603
  WF centre and spread   15  ( -0.394083,  1.588076, 10.695177 )     1.27351332
  WF centre and spread   16  ( -0.006445,  1.811973, 10.029875 )     1.50053956
  WF centre and spread   17  (  0.401613,  1.594008, 10.684340 )     1.27317234
  WF centre and spread   18  ( -0.001246,  2.280191, 10.680903 )     1.27280640
  WF centre and spread   19  (  1.969197,  1.140104,  1.289376 )     1.27351373
  WF centre and spread   20  (  1.581561,  0.916207,  1.954680 )     1.50053970
  WF centre and spread   21  (  1.173501,  1.134170,  1.300216 )     1.27317238
  WF centre and spread   22  (  1.576361,  0.447988,  1.303652 )     1.27280606
  WF centre and spread   23  ( -0.394083,  1.588076,  7.281655 )     1.27351333
  WF centre and spread   24  ( -0.006445,  1.811973,  7.946957 )     1.50053962
  WF centre and spread   25  (  0.401613,  1.594008,  7.292492 )     1.27317235
  WF centre and spread   26  ( -0.001246,  2.280191,  7.295929 )     1.27280642
  Sum of centres and spreads ( 20.476496, 35.466332,155.799215 )    37.65219136
 
   7100    -0.309E-06     0.0005566599       37.6521771811     386.42  <-- CONV
        O_D=      0.0593874 O_OD=      5.5052498 O_TOT=     37.6521772 <-- SPRD
 Delta: O_D= -0.4671995E-07 O_OD= -0.2618047E-06 O_TOT= -0.3085246E-06 <-- DLTA
 ------------------------------------------------------------------------------

 Writing checkpoint file MoS2.chk... done

 Cycle:   7150
  WF centre and spread    1  (  0.002795,  1.825475,  2.996139 )     1.53941954
  WF centre and spread    2  ( -0.000055,  1.807744,  2.996139 )     1.69374072
  WF centre and spread    3  (  0.000034,  1.829844,  2.996139 )     1.69358711
  WF centre and spread    4  (  0.004732,  1.701562,  2.996139 )     1.62703957
  WF centre and spread    5  ( -0.007866,  1.927439,  2.996139 )     1.63224379
  WF centre and spread    6  (  1.572320,  0.902705,  8.988416 )     1.53941965
  WF centre and spread    7  (  1.575170,  0.920435,  8.988416 )     1.69374084
  WF centre and spread    8  (  1.575081,  0.898335,  8.988416 )     1.69358714
  WF centre and spread    9  (  1.570383,  1.026618,  8.988416 )     1.62703970
  WF centre and spread   10  (  1.582982,  0.800740,  8.988416 )     1.63224376
  WF centre and spread   11  (  1.969273,  1.140057,  4.702779 )     1.27350974
  WF centre and spread   12  (  1.581448,  0.916153,  4.037596 )     1.50054182
  WF centre and spread   13  (  1.173575,  1.134255,  4.692135 )     1.27317288
  WF centre and spread   14  (  1.576324,  0.448004,  4.688677 )     1.27280670
  WF centre and spread   15  ( -0.394159,  1.588123, 10.695055 )     1.27350934
  WF centre and spread   16  ( -0.006332,  1.812026, 10.029873 )     1.50054174
  WF centre and spread   17  (  0.401539,  1.593924, 10.684414 )     1.27317284
  WF centre and spread   18  ( -0.001209,  2.280175, 10.680954 )     1.27280707
  WF centre and spread   19  (  1.969273,  1.140057,  1.289499 )     1.27350975
  WF centre and spread   20  (  1.581448,  0.916153,  1.954682 )     1.50054189
  WF centre and spread   21  (  1.173575,  1.134255,  1.300142 )     1.27317289
  WF centre and spread   22  (  1.576324,  0.448004,  1.303601 )     1.27280673
  WF centre and spread   23  ( -0.394159,  1.588123,  7.281777 )     1.27350936
  WF centre and spread   24  ( -0.006331,  1.812026,  7.946960 )     1.50054180
  WF centre and spread   25  (  0.401539,  1.593924,  7.292419 )     1.27317285
  WF centre and spread   26  ( -0.001209,  2.280175,  7.295878 )     1.27280710
  Sum of centres and spreads ( 20.476496, 35.466332,155.799215 )    37.65218632
 
   7150    -0.399E-10     0.0001281063       37.6521721430     389.22  <-- CONV
        O_D=      0.0593821 O_OD=      5.5052500 O_TOT=     37.6521721 <-- SPRD
 Delta: O_D= -0.2992438E-10 O_OD= -0.1000533E-10 O_TOT= -0.3993250E-10 <-- DLTA
 ------------------------------------------------------------------------------
 Final State
  WF centre and spread    1  (  0.002795,  1.825475,  2.996139 )     1.53941954
  WF centre and spread    2  ( -0.000055,  1.807744,  2.996139 )     1.69374072
  WF centre and spread    3  (  0.000034,  1.829844,  2.996139 )     1.69358711
  WF centre and spread    4  (  0.004732,  1.701562,  2.996139 )     1.62703957
  WF centre and spread    5  ( -0.007866,  1.927439,  2.996139 )     1.63224379
  WF centre and spread    6  (  1.572320,  0.902705,  8.988416 )     1.53941965
  WF centre and spread    7  (  1.575170,  0.920435,  8.988416 )     1.69374084
  WF centre and spread    8  (  1.575081,  0.898335,  8.988416 )     1.69358714
  WF centre and spread    9  (  1.570383,  1.026618,  8.988416 )     1.62703970
  WF centre and spread   10  (  1.582982,  0.800740,  8.988416 )     1.63224376
  WF centre and spread   11  (  1.969273,  1.140057,  4.702779 )     1.27350974
  WF centre and spread   12  (  1.581448,  0.916153,  4.037596 )     1.50054182
  WF centre and spread   13  (  1.173575,  1.134255,  4.692135 )     1.27317288
  WF centre and spread   14  (  1.576324,  0.448004,  4.688677 )     1.27280670
  WF centre and spread   15  ( -0.394159,  1.588123, 10.695055 )     1.27350934
  WF centre and spread   16  ( -0.006332,  1.812026, 10.029873 )     1.50054174
  WF centre and spread   17  (  0.401539,  1.593924, 10.684414 )     1.27317284
  WF centre and spread   18  ( -0.001209,  2.280175, 10.680954 )     1.27280707
  WF centre and spread   19  (  1.969273,  1.140057,  1.289499 )     1.27350975
  WF centre and spread   20  (  1.581448,  0.916153,  1.954682 )     1.50054189
  WF centre and spread   21  (  1.173575,  1.134255,  1.300142 )     1.27317289
  WF centre and spread   22  (  1.576324,  0.448004,  1.303601 )     1.27280673
  WF centre and spread   23  ( -0.394159,  1.588123,  7.281777 )     1.27350936
  WF centre and spread   24  ( -0.006331,  1.812026,  7.946960 )     1.50054180
  WF centre and spread   25  (  0.401539,  1.593924,  7.292419 )     1.27317285
  WF centre and spread   26  ( -0.001209,  2.280175,  7.295878 )     1.27280710
  Sum of centres and spreads ( 20.476496, 35.466332,155.799215 )    37.65218632
 
         Spreads (Ang^2)       Omega I      =    32.087540014
        ================       Omega D      =     0.059382092
                               Omega OD     =     5.505250037
    Final Spread (Ang^2)       Omega Total  =    37.652172143
 ------------------------------------------------------------------------------
 Time for wannierise          355.950 (sec)

 Writing checkpoint file MoS2.chk... done

 *---------------------------------------------------------------------------*
 |                               PLOTTING                                    |
 *---------------------------------------------------------------------------*
 
 
 Calculating interpolated band-structure
 
 Time to calculate interpolated band structure      25.680 (sec)
 
 Time for plotting            641.811 (sec)
 Total Execution Time        1025.164 (sec)

 *===========================================================================*
 |                             TIMING INFORMATION                            |
 *===========================================================================*
 |    Tag                                                Ncalls      Time (s)|
 |---------------------------------------------------------------------------|
 |kmesh: get                                        :         1         0.680|
 |overlap: allocate                                 :         1         0.009|
 |overlap: read                                     :         1        24.979|
 |dis: main                                         :         1         1.523|
 |wann: main                                        :         1       355.950|
 |plot: main                                        :         1       641.811|
 *---------------------------------------------------------------------------*
 
 All done: wannier90 exiting
