
     Program PWSCF v.7.1 starts on 30May2024 at 11:20:14 

     This program is part of the open-source Quantum ESPRESSO suite
     for quantum simulation of materials; please cite
         "P. Giannozzi et al., J. Phys.:Condens. Matter 21 395502 (2009);
         "P. Giannozzi et al., J. Phys.:Condens. Matter 29 465901 (2017);
         "P. Giannozzi et al., J. Chem. Phys. 152 154105 (2020);
          URL http://www.quantum-espresso.org", 
     in publications or presentations arising from this work. More details at
     http://www.quantum-espresso.org/quote

     Parallel version (MPI), running on    32 processors

     MPI processes distributed on     1 nodes
     173058 MiB available memory on the printing compute node when the environment starts
 
     Waiting for input...
     Reading input from standard input

     Current dimensions of program PWSCF are:
     Max number of different atomic species (ntypx) = 10
     Max number of k-points (npk) =  40000
     Max angular momentum in pseudopotentials (lmaxx) =  4

     Atomic positions and unit cell read from directory:
     ./MoS2.save/
     Atomic positions from file used, from input discarded
 
     file Mo.pbe-spn-kjpaw_psl.0.2.UPF: wavefunction(s)  4D renormalized
     file S.pbe-n-kjpaw_psl.0.1.UPF: wavefunction(s)  3P renormalized
 
     R & G space division:  proc/nbgrp/npool/nimage =      32
     Subspace diagonalization in iterative solution of the eigenvalue problem:
     a serial algorithm will be used

 
     Parallelization info
     --------------------
     sticks:   dense  smooth     PW     G-vecs:    dense   smooth      PW
     Min          32      21      7                 3154     1713     389
     Max          33      22      8                 3171     1734     412
     Sum        1027     673    253               101073    54949   13059
 
     Using Slab Decomposition
 


     bravais-lattice index     =            4
     lattice parameter (alat)  =       5.9531  a.u.
     unit-cell volume          =     695.0783 (a.u.)^3
     number of atoms/cell      =            6
     number of atomic types    =            2
     number of electrons       =        52.00
     number of Kohn-Sham states=           52
     kinetic-energy cutoff     =      70.0000  Ry
     charge density cutoff     =     420.0000  Ry
     Exchange-correlation= SLA  PW   PBX  PBC
                           (   1   4   3   4   0   0   0)

     celldm(1)=   5.953073  celldm(2)=   0.000000  celldm(3)=   3.804342
     celldm(4)=   0.000000  celldm(5)=   0.000000  celldm(6)=   0.000000

     crystal axes: (cart. coord. in units of alat)
               a(1) = (   1.000000   0.000000   0.000000 )  
               a(2) = (  -0.500000   0.866025   0.000000 )  
               a(3) = (   0.000000   0.000000   3.804342 )  

     reciprocal axes: (cart. coord. in units 2 pi/alat)
               b(1) = (  1.000000  0.577350  0.000000 )  
               b(2) = (  0.000000  1.154701  0.000000 )  
               b(3) = (  0.000000  0.000000  0.262858 )  


     PseudoPot. # 1 for Mo read from file:
     ./Mo.pbe-spn-kjpaw_psl.0.2.UPF
     MD5 check sum: c350be6523f52beb1aa5af16b45f597d
     Pseudo is Projector augmented-wave + core cor, Zval = 14.0
     Generated using "atomic" code by A. Dal Corso  v.5.0.2 svn rev. 9415
     Shape of augmentation charge: PSQ
     Using radial grid of 1229 points,  6 beta functions with: 
                l(1) =   0
                l(2) =   0
                l(3) =   1
                l(4) =   1
                l(5) =   2
                l(6) =   2
     Q(r) pseudized with 0 coefficients 


     PseudoPot. # 2 for S  read from file:
     ./S.pbe-n-kjpaw_psl.0.1.UPF
     MD5 check sum: 1c303a2ed0d2bd98331ea607af2ec33b
     Pseudo is Projector augmented-wave + core cor, Zval =  6.0
     Generated using "atomic" code by A. Dal Corso  v.5.0.2 svn rev. 9415
     Shape of augmentation charge: PSQ
     Using radial grid of 1151 points,  4 beta functions with: 
                l(1) =   0
                l(2) =   0
                l(3) =   1
                l(4) =   1
     Q(r) pseudized with 0 coefficients 


     atomic species   valence    mass     pseudopotential
        Mo            14.00    95.95000     Mo( 1.00)
        S              6.00    32.06500     S ( 1.00)

     No symmetry found


                                    s                        frac. trans.

      isym =  1     identity                                     

 cryst.   s( 1) = (     1          0          0      )
                  (     0          1          0      )
                  (     0          0          1      )

 cart.    s( 1) = (  1.0000000  0.0000000  0.0000000 )
                  (  0.0000000  1.0000000  0.0000000 )
                  (  0.0000000  0.0000000  1.0000000 )


     point group C_1 (1)    
     there are  1 classes
     the character table:

       E    
A      1.00

     the symmetry operations in each class and the name of the first element:

     E        1
          identity                                               

   Cartesian axes

     site n.     atom                  positions (alat units)
         1           Mo  tau(   1) = (  -0.0000000   0.5773503   0.9510855  )
         2           Mo  tau(   2) = (   0.5000000   0.2886751   2.8532566  )
         3           S   tau(   3) = (   0.5000000   0.2886751   1.4495309  )
         4           S   tau(   4) = (  -0.0000000   0.5773503   3.3517020  )
         5           S   tau(   5) = (   0.5000000   0.2886751   0.4526401  )
         6           S   tau(   6) = (  -0.0000000   0.5773503   2.3548112  )

   Crystallographic axes

     site n.     atom                  positions (cryst. coord.)
         1           Mo  tau(   1) = (  0.3333333  0.6666667  0.2500000  )
         2           Mo  tau(   2) = (  0.6666667  0.3333333  0.7500000  )
         3           S   tau(   3) = (  0.6666667  0.3333333  0.3810201  )
         4           S   tau(   4) = (  0.3333333  0.6666667  0.8810201  )
         5           S   tau(   5) = (  0.6666667  0.3333333  0.1189799  )
         6           S   tau(   6) = (  0.3333333  0.6666667  0.6189799  )

     number of k points=  1620  Gaussian smearing, width (Ry)=  0.0200
                       cart. coord. in units 2pi/alat
        k(    1) = (   0.0000000   0.0000000   0.0000000), wk =   0.0012346
        k(    2) = (   0.0000000   0.0000000   0.0525715), wk =   0.0012346
        k(    3) = (   0.0000000   0.0000000   0.1051430), wk =   0.0012346
        k(    4) = (   0.0000000   0.0000000   0.1577145), wk =   0.0012346
        k(    5) = (   0.0000000   0.0000000   0.2102860), wk =   0.0012346
        k(    6) = (   0.0000000   0.0641500   0.0000000), wk =   0.0012346
        k(    7) = (   0.0000000   0.0641500   0.0525715), wk =   0.0012346
        k(    8) = (   0.0000000   0.0641500   0.1051430), wk =   0.0012346
        k(    9) = (   0.0000000   0.0641500   0.1577145), wk =   0.0012346
        k(   10) = (   0.0000000   0.0641500   0.2102860), wk =   0.0012346
        k(   11) = (   0.0000000   0.1283001   0.0000000), wk =   0.0012346
        k(   12) = (   0.0000000   0.1283001   0.0525715), wk =   0.0012346
        k(   13) = (   0.0000000   0.1283001   0.1051430), wk =   0.0012346
        k(   14) = (   0.0000000   0.1283001   0.1577145), wk =   0.0012346
        k(   15) = (   0.0000000   0.1283001   0.2102860), wk =   0.0012346
        k(   16) = (   0.0000000   0.1924501   0.0000000), wk =   0.0012346
        k(   17) = (   0.0000000   0.1924501   0.0525715), wk =   0.0012346
        k(   18) = (   0.0000000   0.1924501   0.1051430), wk =   0.0012346
        k(   19) = (   0.0000000   0.1924501   0.1577145), wk =   0.0012346
        k(   20) = (   0.0000000   0.1924501   0.2102860), wk =   0.0012346
        k(   21) = (   0.0000000   0.2566001   0.0000000), wk =   0.0012346
        k(   22) = (   0.0000000   0.2566001   0.0525715), wk =   0.0012346
        k(   23) = (   0.0000000   0.2566001   0.1051430), wk =   0.0012346
        k(   24) = (   0.0000000   0.2566001   0.1577145), wk =   0.0012346
        k(   25) = (   0.0000000   0.2566001   0.2102860), wk =   0.0012346
        k(   26) = (   0.0000000   0.3207502   0.0000000), wk =   0.0012346
        k(   27) = (   0.0000000   0.3207502   0.0525715), wk =   0.0012346
        k(   28) = (   0.0000000   0.3207502   0.1051430), wk =   0.0012346
        k(   29) = (   0.0000000   0.3207502   0.1577145), wk =   0.0012346
        k(   30) = (   0.0000000   0.3207502   0.2102860), wk =   0.0012346
        k(   31) = (   0.0000000   0.3849002   0.0000000), wk =   0.0012346
        k(   32) = (   0.0000000   0.3849002   0.0525715), wk =   0.0012346
        k(   33) = (   0.0000000   0.3849002   0.1051430), wk =   0.0012346
        k(   34) = (   0.0000000   0.3849002   0.1577145), wk =   0.0012346
        k(   35) = (   0.0000000   0.3849002   0.2102860), wk =   0.0012346
        k(   36) = (   0.0000000   0.4490502   0.0000000), wk =   0.0012346
        k(   37) = (   0.0000000   0.4490502   0.0525715), wk =   0.0012346
        k(   38) = (   0.0000000   0.4490502   0.1051430), wk =   0.0012346
        k(   39) = (   0.0000000   0.4490502   0.1577145), wk =   0.0012346
        k(   40) = (   0.0000000   0.4490502   0.2102860), wk =   0.0012346
        k(   41) = (   0.0000000   0.5132002   0.0000000), wk =   0.0012346
        k(   42) = (   0.0000000   0.5132002   0.0525715), wk =   0.0012346
        k(   43) = (   0.0000000   0.5132002   0.1051430), wk =   0.0012346
        k(   44) = (   0.0000000   0.5132002   0.1577145), wk =   0.0012346
        k(   45) = (   0.0000000   0.5132002   0.2102860), wk =   0.0012346
        k(   46) = (   0.0000000   0.5773503   0.0000000), wk =   0.0012346
        k(   47) = (   0.0000000   0.5773503   0.0525715), wk =   0.0012346
        k(   48) = (   0.0000000   0.5773503   0.1051430), wk =   0.0012346
        k(   49) = (   0.0000000   0.5773503   0.1577145), wk =   0.0012346
        k(   50) = (   0.0000000   0.5773503   0.2102860), wk =   0.0012346
        k(   51) = (   0.0000000   0.6415003   0.0000000), wk =   0.0012346
        k(   52) = (   0.0000000   0.6415003   0.0525715), wk =   0.0012346
        k(   53) = (   0.0000000   0.6415003   0.1051430), wk =   0.0012346
        k(   54) = (   0.0000000   0.6415003   0.1577145), wk =   0.0012346
        k(   55) = (   0.0000000   0.6415003   0.2102860), wk =   0.0012346
        k(   56) = (   0.0000000   0.7056503   0.0000000), wk =   0.0012346
        k(   57) = (   0.0000000   0.7056503   0.0525715), wk =   0.0012346
        k(   58) = (   0.0000000   0.7056503   0.1051430), wk =   0.0012346
        k(   59) = (   0.0000000   0.7056503   0.1577145), wk =   0.0012346
        k(   60) = (   0.0000000   0.7056503   0.2102860), wk =   0.0012346
        k(   61) = (   0.0000000   0.7698004   0.0000000), wk =   0.0012346
        k(   62) = (   0.0000000   0.7698004   0.0525715), wk =   0.0012346
        k(   63) = (   0.0000000   0.7698004   0.1051430), wk =   0.0012346
        k(   64) = (   0.0000000   0.7698004   0.1577145), wk =   0.0012346
        k(   65) = (   0.0000000   0.7698004   0.2102860), wk =   0.0012346
        k(   66) = (   0.0000000   0.8339504   0.0000000), wk =   0.0012346
        k(   67) = (   0.0000000   0.8339504   0.0525715), wk =   0.0012346
        k(   68) = (   0.0000000   0.8339504   0.1051430), wk =   0.0012346
        k(   69) = (   0.0000000   0.8339504   0.1577145), wk =   0.0012346
        k(   70) = (   0.0000000   0.8339504   0.2102860), wk =   0.0012346
        k(   71) = (   0.0000000   0.8981004   0.0000000), wk =   0.0012346
        k(   72) = (   0.0000000   0.8981004   0.0525715), wk =   0.0012346
        k(   73) = (   0.0000000   0.8981004   0.1051430), wk =   0.0012346
        k(   74) = (   0.0000000   0.8981004   0.1577145), wk =   0.0012346
        k(   75) = (   0.0000000   0.8981004   0.2102860), wk =   0.0012346
        k(   76) = (   0.0000000   0.9622504   0.0000000), wk =   0.0012346
        k(   77) = (   0.0000000   0.9622504   0.0525715), wk =   0.0012346
        k(   78) = (   0.0000000   0.9622504   0.1051430), wk =   0.0012346
        k(   79) = (   0.0000000   0.9622504   0.1577145), wk =   0.0012346
        k(   80) = (   0.0000000   0.9622504   0.2102860), wk =   0.0012346
        k(   81) = (   0.0000000   1.0264005   0.0000000), wk =   0.0012346
        k(   82) = (   0.0000000   1.0264005   0.0525715), wk =   0.0012346
        k(   83) = (   0.0000000   1.0264005   0.1051430), wk =   0.0012346
        k(   84) = (   0.0000000   1.0264005   0.1577145), wk =   0.0012346
        k(   85) = (   0.0000000   1.0264005   0.2102860), wk =   0.0012346
        k(   86) = (   0.0000000   1.0905505   0.0000000), wk =   0.0012346
        k(   87) = (   0.0000000   1.0905505   0.0525715), wk =   0.0012346
        k(   88) = (   0.0000000   1.0905505   0.1051430), wk =   0.0012346
        k(   89) = (   0.0000000   1.0905505   0.1577145), wk =   0.0012346
        k(   90) = (   0.0000000   1.0905505   0.2102860), wk =   0.0012346
        k(   91) = (   0.0555556   0.0320750   0.0000000), wk =   0.0012346
        k(   92) = (   0.0555556   0.0320750   0.0525715), wk =   0.0012346
        k(   93) = (   0.0555556   0.0320750   0.1051430), wk =   0.0012346
        k(   94) = (   0.0555556   0.0320750   0.1577145), wk =   0.0012346
        k(   95) = (   0.0555556   0.0320750   0.2102860), wk =   0.0012346
        k(   96) = (   0.0555556   0.0962251   0.0000000), wk =   0.0012346
        k(   97) = (   0.0555556   0.0962251   0.0525715), wk =   0.0012346
        k(   98) = (   0.0555556   0.0962251   0.1051430), wk =   0.0012346
        k(   99) = (   0.0555556   0.0962251   0.1577145), wk =   0.0012346
        k(  100) = (   0.0555556   0.0962251   0.2102860), wk =   0.0012346
        k(  101) = (   0.0555556   0.1603751   0.0000000), wk =   0.0012346
        k(  102) = (   0.0555556   0.1603751   0.0525715), wk =   0.0012346
        k(  103) = (   0.0555556   0.1603751   0.1051430), wk =   0.0012346
        k(  104) = (   0.0555556   0.1603751   0.1577145), wk =   0.0012346
        k(  105) = (   0.0555556   0.1603751   0.2102860), wk =   0.0012346
        k(  106) = (   0.0555556   0.2245251   0.0000000), wk =   0.0012346
        k(  107) = (   0.0555556   0.2245251   0.0525715), wk =   0.0012346
        k(  108) = (   0.0555556   0.2245251   0.1051430), wk =   0.0012346
        k(  109) = (   0.0555556   0.2245251   0.1577145), wk =   0.0012346
        k(  110) = (   0.0555556   0.2245251   0.2102860), wk =   0.0012346
        k(  111) = (   0.0555556   0.2886751   0.0000000), wk =   0.0012346
        k(  112) = (   0.0555556   0.2886751   0.0525715), wk =   0.0012346
        k(  113) = (   0.0555556   0.2886751   0.1051430), wk =   0.0012346
        k(  114) = (   0.0555556   0.2886751   0.1577145), wk =   0.0012346
        k(  115) = (   0.0555556   0.2886751   0.2102860), wk =   0.0012346
        k(  116) = (   0.0555556   0.3528252   0.0000000), wk =   0.0012346
        k(  117) = (   0.0555556   0.3528252   0.0525715), wk =   0.0012346
        k(  118) = (   0.0555556   0.3528252   0.1051430), wk =   0.0012346
        k(  119) = (   0.0555556   0.3528252   0.1577145), wk =   0.0012346
        k(  120) = (   0.0555556   0.3528252   0.2102860), wk =   0.0012346
        k(  121) = (   0.0555556   0.4169752   0.0000000), wk =   0.0012346
        k(  122) = (   0.0555556   0.4169752   0.0525715), wk =   0.0012346
        k(  123) = (   0.0555556   0.4169752   0.1051430), wk =   0.0012346
        k(  124) = (   0.0555556   0.4169752   0.1577145), wk =   0.0012346
        k(  125) = (   0.0555556   0.4169752   0.2102860), wk =   0.0012346
        k(  126) = (   0.0555556   0.4811252   0.0000000), wk =   0.0012346
        k(  127) = (   0.0555556   0.4811252   0.0525715), wk =   0.0012346
        k(  128) = (   0.0555556   0.4811252   0.1051430), wk =   0.0012346
        k(  129) = (   0.0555556   0.4811252   0.1577145), wk =   0.0012346
        k(  130) = (   0.0555556   0.4811252   0.2102860), wk =   0.0012346
        k(  131) = (   0.0555556   0.5452753   0.0000000), wk =   0.0012346
        k(  132) = (   0.0555556   0.5452753   0.0525715), wk =   0.0012346
        k(  133) = (   0.0555556   0.5452753   0.1051430), wk =   0.0012346
        k(  134) = (   0.0555556   0.5452753   0.1577145), wk =   0.0012346
        k(  135) = (   0.0555556   0.5452753   0.2102860), wk =   0.0012346
        k(  136) = (   0.0555556   0.6094253   0.0000000), wk =   0.0012346
        k(  137) = (   0.0555556   0.6094253   0.0525715), wk =   0.0012346
        k(  138) = (   0.0555556   0.6094253   0.1051430), wk =   0.0012346
        k(  139) = (   0.0555556   0.6094253   0.1577145), wk =   0.0012346
        k(  140) = (   0.0555556   0.6094253   0.2102860), wk =   0.0012346
        k(  141) = (   0.0555556   0.6735753   0.0000000), wk =   0.0012346
        k(  142) = (   0.0555556   0.6735753   0.0525715), wk =   0.0012346
        k(  143) = (   0.0555556   0.6735753   0.1051430), wk =   0.0012346
        k(  144) = (   0.0555556   0.6735753   0.1577145), wk =   0.0012346
        k(  145) = (   0.0555556   0.6735753   0.2102860), wk =   0.0012346
        k(  146) = (   0.0555556   0.7377253   0.0000000), wk =   0.0012346
        k(  147) = (   0.0555556   0.7377253   0.0525715), wk =   0.0012346
        k(  148) = (   0.0555556   0.7377253   0.1051430), wk =   0.0012346
        k(  149) = (   0.0555556   0.7377253   0.1577145), wk =   0.0012346
        k(  150) = (   0.0555556   0.7377253   0.2102860), wk =   0.0012346
        k(  151) = (   0.0555556   0.8018754   0.0000000), wk =   0.0012346
        k(  152) = (   0.0555556   0.8018754   0.0525715), wk =   0.0012346
        k(  153) = (   0.0555556   0.8018754   0.1051430), wk =   0.0012346
        k(  154) = (   0.0555556   0.8018754   0.1577145), wk =   0.0012346
        k(  155) = (   0.0555556   0.8018754   0.2102860), wk =   0.0012346
        k(  156) = (   0.0555556   0.8660254   0.0000000), wk =   0.0012346
        k(  157) = (   0.0555556   0.8660254   0.0525715), wk =   0.0012346
        k(  158) = (   0.0555556   0.8660254   0.1051430), wk =   0.0012346
        k(  159) = (   0.0555556   0.8660254   0.1577145), wk =   0.0012346
        k(  160) = (   0.0555556   0.8660254   0.2102860), wk =   0.0012346
        k(  161) = (   0.0555556   0.9301754   0.0000000), wk =   0.0012346
        k(  162) = (   0.0555556   0.9301754   0.0525715), wk =   0.0012346
        k(  163) = (   0.0555556   0.9301754   0.1051430), wk =   0.0012346
        k(  164) = (   0.0555556   0.9301754   0.1577145), wk =   0.0012346
        k(  165) = (   0.0555556   0.9301754   0.2102860), wk =   0.0012346
        k(  166) = (   0.0555556   0.9943255   0.0000000), wk =   0.0012346
        k(  167) = (   0.0555556   0.9943255   0.0525715), wk =   0.0012346
        k(  168) = (   0.0555556   0.9943255   0.1051430), wk =   0.0012346
        k(  169) = (   0.0555556   0.9943255   0.1577145), wk =   0.0012346
        k(  170) = (   0.0555556   0.9943255   0.2102860), wk =   0.0012346
        k(  171) = (   0.0555556   1.0584755   0.0000000), wk =   0.0012346
        k(  172) = (   0.0555556   1.0584755   0.0525715), wk =   0.0012346
        k(  173) = (   0.0555556   1.0584755   0.1051430), wk =   0.0012346
        k(  174) = (   0.0555556   1.0584755   0.1577145), wk =   0.0012346
        k(  175) = (   0.0555556   1.0584755   0.2102860), wk =   0.0012346
        k(  176) = (   0.0555556   1.1226255   0.0000000), wk =   0.0012346
        k(  177) = (   0.0555556   1.1226255   0.0525715), wk =   0.0012346
        k(  178) = (   0.0555556   1.1226255   0.1051430), wk =   0.0012346
        k(  179) = (   0.0555556   1.1226255   0.1577145), wk =   0.0012346
        k(  180) = (   0.0555556   1.1226255   0.2102860), wk =   0.0012346
        k(  181) = (   0.1111111   0.0641500   0.0000000), wk =   0.0012346
        k(  182) = (   0.1111111   0.0641500   0.0525715), wk =   0.0012346
        k(  183) = (   0.1111111   0.0641500   0.1051430), wk =   0.0012346
        k(  184) = (   0.1111111   0.0641500   0.1577145), wk =   0.0012346
        k(  185) = (   0.1111111   0.0641500   0.2102860), wk =   0.0012346
        k(  186) = (   0.1111111   0.1283001   0.0000000), wk =   0.0012346
        k(  187) = (   0.1111111   0.1283001   0.0525715), wk =   0.0012346
        k(  188) = (   0.1111111   0.1283001   0.1051430), wk =   0.0012346
        k(  189) = (   0.1111111   0.1283001   0.1577145), wk =   0.0012346
        k(  190) = (   0.1111111   0.1283001   0.2102860), wk =   0.0012346
        k(  191) = (   0.1111111   0.1924501   0.0000000), wk =   0.0012346
        k(  192) = (   0.1111111   0.1924501   0.0525715), wk =   0.0012346
        k(  193) = (   0.1111111   0.1924501   0.1051430), wk =   0.0012346
        k(  194) = (   0.1111111   0.1924501   0.1577145), wk =   0.0012346
        k(  195) = (   0.1111111   0.1924501   0.2102860), wk =   0.0012346
        k(  196) = (   0.1111111   0.2566001   0.0000000), wk =   0.0012346
        k(  197) = (   0.1111111   0.2566001   0.0525715), wk =   0.0012346
        k(  198) = (   0.1111111   0.2566001   0.1051430), wk =   0.0012346
        k(  199) = (   0.1111111   0.2566001   0.1577145), wk =   0.0012346
        k(  200) = (   0.1111111   0.2566001   0.2102860), wk =   0.0012346
        k(  201) = (   0.1111111   0.3207501   0.0000000), wk =   0.0012346
        k(  202) = (   0.1111111   0.3207501   0.0525715), wk =   0.0012346
        k(  203) = (   0.1111111   0.3207501   0.1051430), wk =   0.0012346
        k(  204) = (   0.1111111   0.3207501   0.1577145), wk =   0.0012346
        k(  205) = (   0.1111111   0.3207501   0.2102860), wk =   0.0012346
        k(  206) = (   0.1111111   0.3849002   0.0000000), wk =   0.0012346
        k(  207) = (   0.1111111   0.3849002   0.0525715), wk =   0.0012346
        k(  208) = (   0.1111111   0.3849002   0.1051430), wk =   0.0012346
        k(  209) = (   0.1111111   0.3849002   0.1577145), wk =   0.0012346
        k(  210) = (   0.1111111   0.3849002   0.2102860), wk =   0.0012346
        k(  211) = (   0.1111111   0.4490502   0.0000000), wk =   0.0012346
        k(  212) = (   0.1111111   0.4490502   0.0525715), wk =   0.0012346
        k(  213) = (   0.1111111   0.4490502   0.1051430), wk =   0.0012346
        k(  214) = (   0.1111111   0.4490502   0.1577145), wk =   0.0012346
        k(  215) = (   0.1111111   0.4490502   0.2102860), wk =   0.0012346
        k(  216) = (   0.1111111   0.5132002   0.0000000), wk =   0.0012346
        k(  217) = (   0.1111111   0.5132002   0.0525715), wk =   0.0012346
        k(  218) = (   0.1111111   0.5132002   0.1051430), wk =   0.0012346
        k(  219) = (   0.1111111   0.5132002   0.1577145), wk =   0.0012346
        k(  220) = (   0.1111111   0.5132002   0.2102860), wk =   0.0012346
        k(  221) = (   0.1111111   0.5773503   0.0000000), wk =   0.0012346
        k(  222) = (   0.1111111   0.5773503   0.0525715), wk =   0.0012346
        k(  223) = (   0.1111111   0.5773503   0.1051430), wk =   0.0012346
        k(  224) = (   0.1111111   0.5773503   0.1577145), wk =   0.0012346
        k(  225) = (   0.1111111   0.5773503   0.2102860), wk =   0.0012346
        k(  226) = (   0.1111111   0.6415003   0.0000000), wk =   0.0012346
        k(  227) = (   0.1111111   0.6415003   0.0525715), wk =   0.0012346
        k(  228) = (   0.1111111   0.6415003   0.1051430), wk =   0.0012346
        k(  229) = (   0.1111111   0.6415003   0.1577145), wk =   0.0012346
        k(  230) = (   0.1111111   0.6415003   0.2102860), wk =   0.0012346
        k(  231) = (   0.1111111   0.7056503   0.0000000), wk =   0.0012346
        k(  232) = (   0.1111111   0.7056503   0.0525715), wk =   0.0012346
        k(  233) = (   0.1111111   0.7056503   0.1051430), wk =   0.0012346
        k(  234) = (   0.1111111   0.7056503   0.1577145), wk =   0.0012346
        k(  235) = (   0.1111111   0.7056503   0.2102860), wk =   0.0012346
        k(  236) = (   0.1111111   0.7698004   0.0000000), wk =   0.0012346
        k(  237) = (   0.1111111   0.7698004   0.0525715), wk =   0.0012346
        k(  238) = (   0.1111111   0.7698004   0.1051430), wk =   0.0012346
        k(  239) = (   0.1111111   0.7698004   0.1577145), wk =   0.0012346
        k(  240) = (   0.1111111   0.7698004   0.2102860), wk =   0.0012346
        k(  241) = (   0.1111111   0.8339504   0.0000000), wk =   0.0012346
        k(  242) = (   0.1111111   0.8339504   0.0525715), wk =   0.0012346
        k(  243) = (   0.1111111   0.8339504   0.1051430), wk =   0.0012346
        k(  244) = (   0.1111111   0.8339504   0.1577145), wk =   0.0012346
        k(  245) = (   0.1111111   0.8339504   0.2102860), wk =   0.0012346
        k(  246) = (   0.1111111   0.8981004   0.0000000), wk =   0.0012346
        k(  247) = (   0.1111111   0.8981004   0.0525715), wk =   0.0012346
        k(  248) = (   0.1111111   0.8981004   0.1051430), wk =   0.0012346
        k(  249) = (   0.1111111   0.8981004   0.1577145), wk =   0.0012346
        k(  250) = (   0.1111111   0.8981004   0.2102860), wk =   0.0012346
        k(  251) = (   0.1111111   0.9622505   0.0000000), wk =   0.0012346
        k(  252) = (   0.1111111   0.9622505   0.0525715), wk =   0.0012346
        k(  253) = (   0.1111111   0.9622505   0.1051430), wk =   0.0012346
        k(  254) = (   0.1111111   0.9622505   0.1577145), wk =   0.0012346
        k(  255) = (   0.1111111   0.9622505   0.2102860), wk =   0.0012346
        k(  256) = (   0.1111111   1.0264005   0.0000000), wk =   0.0012346
        k(  257) = (   0.1111111   1.0264005   0.0525715), wk =   0.0012346
        k(  258) = (   0.1111111   1.0264005   0.1051430), wk =   0.0012346
        k(  259) = (   0.1111111   1.0264005   0.1577145), wk =   0.0012346
        k(  260) = (   0.1111111   1.0264005   0.2102860), wk =   0.0012346
        k(  261) = (   0.1111111   1.0905505   0.0000000), wk =   0.0012346
        k(  262) = (   0.1111111   1.0905505   0.0525715), wk =   0.0012346
        k(  263) = (   0.1111111   1.0905505   0.1051430), wk =   0.0012346
        k(  264) = (   0.1111111   1.0905505   0.1577145), wk =   0.0012346
        k(  265) = (   0.1111111   1.0905505   0.2102860), wk =   0.0012346
        k(  266) = (   0.1111111   1.1547005   0.0000000), wk =   0.0012346
        k(  267) = (   0.1111111   1.1547005   0.0525715), wk =   0.0012346
        k(  268) = (   0.1111111   1.1547005   0.1051430), wk =   0.0012346
        k(  269) = (   0.1111111   1.1547005   0.1577145), wk =   0.0012346
        k(  270) = (   0.1111111   1.1547005   0.2102860), wk =   0.0012346
        k(  271) = (   0.1666667   0.0962250   0.0000000), wk =   0.0012346
        k(  272) = (   0.1666667   0.0962250   0.0525715), wk =   0.0012346
        k(  273) = (   0.1666667   0.0962250   0.1051430), wk =   0.0012346
        k(  274) = (   0.1666667   0.0962250   0.1577145), wk =   0.0012346
        k(  275) = (   0.1666667   0.0962250   0.2102860), wk =   0.0012346
        k(  276) = (   0.1666667   0.1603751   0.0000000), wk =   0.0012346
        k(  277) = (   0.1666667   0.1603751   0.0525715), wk =   0.0012346
        k(  278) = (   0.1666667   0.1603751   0.1051430), wk =   0.0012346
        k(  279) = (   0.1666667   0.1603751   0.1577145), wk =   0.0012346
        k(  280) = (   0.1666667   0.1603751   0.2102860), wk =   0.0012346
        k(  281) = (   0.1666667   0.2245251   0.0000000), wk =   0.0012346
        k(  282) = (   0.1666667   0.2245251   0.0525715), wk =   0.0012346
        k(  283) = (   0.1666667   0.2245251   0.1051430), wk =   0.0012346
        k(  284) = (   0.1666667   0.2245251   0.1577145), wk =   0.0012346
        k(  285) = (   0.1666667   0.2245251   0.2102860), wk =   0.0012346
        k(  286) = (   0.1666667   0.2886751   0.0000000), wk =   0.0012346
        k(  287) = (   0.1666667   0.2886751   0.0525715), wk =   0.0012346
        k(  288) = (   0.1666667   0.2886751   0.1051430), wk =   0.0012346
        k(  289) = (   0.1666667   0.2886751   0.1577145), wk =   0.0012346
        k(  290) = (   0.1666667   0.2886751   0.2102860), wk =   0.0012346
        k(  291) = (   0.1666667   0.3528252   0.0000000), wk =   0.0012346
        k(  292) = (   0.1666667   0.3528252   0.0525715), wk =   0.0012346
        k(  293) = (   0.1666667   0.3528252   0.1051430), wk =   0.0012346
        k(  294) = (   0.1666667   0.3528252   0.1577145), wk =   0.0012346
        k(  295) = (   0.1666667   0.3528252   0.2102860), wk =   0.0012346
        k(  296) = (   0.1666667   0.4169752   0.0000000), wk =   0.0012346
        k(  297) = (   0.1666667   0.4169752   0.0525715), wk =   0.0012346
        k(  298) = (   0.1666667   0.4169752   0.1051430), wk =   0.0012346
        k(  299) = (   0.1666667   0.4169752   0.1577145), wk =   0.0012346
        k(  300) = (   0.1666667   0.4169752   0.2102860), wk =   0.0012346
        k(  301) = (   0.1666667   0.4811252   0.0000000), wk =   0.0012346
        k(  302) = (   0.1666667   0.4811252   0.0525715), wk =   0.0012346
        k(  303) = (   0.1666667   0.4811252   0.1051430), wk =   0.0012346
        k(  304) = (   0.1666667   0.4811252   0.1577145), wk =   0.0012346
        k(  305) = (   0.1666667   0.4811252   0.2102860), wk =   0.0012346
        k(  306) = (   0.1666667   0.5452753   0.0000000), wk =   0.0012346
        k(  307) = (   0.1666667   0.5452753   0.0525715), wk =   0.0012346
        k(  308) = (   0.1666667   0.5452753   0.1051430), wk =   0.0012346
        k(  309) = (   0.1666667   0.5452753   0.1577145), wk =   0.0012346
        k(  310) = (   0.1666667   0.5452753   0.2102860), wk =   0.0012346
        k(  311) = (   0.1666667   0.6094253   0.0000000), wk =   0.0012346
        k(  312) = (   0.1666667   0.6094253   0.0525715), wk =   0.0012346
        k(  313) = (   0.1666667   0.6094253   0.1051430), wk =   0.0012346
        k(  314) = (   0.1666667   0.6094253   0.1577145), wk =   0.0012346
        k(  315) = (   0.1666667   0.6094253   0.2102860), wk =   0.0012346
        k(  316) = (   0.1666667   0.6735753   0.0000000), wk =   0.0012346
        k(  317) = (   0.1666667   0.6735753   0.0525715), wk =   0.0012346
        k(  318) = (   0.1666667   0.6735753   0.1051430), wk =   0.0012346
        k(  319) = (   0.1666667   0.6735753   0.1577145), wk =   0.0012346
        k(  320) = (   0.1666667   0.6735753   0.2102860), wk =   0.0012346
        k(  321) = (   0.1666667   0.7377254   0.0000000), wk =   0.0012346
        k(  322) = (   0.1666667   0.7377254   0.0525715), wk =   0.0012346
        k(  323) = (   0.1666667   0.7377254   0.1051430), wk =   0.0012346
        k(  324) = (   0.1666667   0.7377254   0.1577145), wk =   0.0012346
        k(  325) = (   0.1666667   0.7377254   0.2102860), wk =   0.0012346
        k(  326) = (   0.1666667   0.8018754   0.0000000), wk =   0.0012346
        k(  327) = (   0.1666667   0.8018754   0.0525715), wk =   0.0012346
        k(  328) = (   0.1666667   0.8018754   0.1051430), wk =   0.0012346
        k(  329) = (   0.1666667   0.8018754   0.1577145), wk =   0.0012346
        k(  330) = (   0.1666667   0.8018754   0.2102860), wk =   0.0012346
        k(  331) = (   0.1666667   0.8660254   0.0000000), wk =   0.0012346
        k(  332) = (   0.1666667   0.8660254   0.0525715), wk =   0.0012346
        k(  333) = (   0.1666667   0.8660254   0.1051430), wk =   0.0012346
        k(  334) = (   0.1666667   0.8660254   0.1577145), wk =   0.0012346
        k(  335) = (   0.1666667   0.8660254   0.2102860), wk =   0.0012346
        k(  336) = (   0.1666667   0.9301754   0.0000000), wk =   0.0012346
        k(  337) = (   0.1666667   0.9301754   0.0525715), wk =   0.0012346
        k(  338) = (   0.1666667   0.9301754   0.1051430), wk =   0.0012346
        k(  339) = (   0.1666667   0.9301754   0.1577145), wk =   0.0012346
        k(  340) = (   0.1666667   0.9301754   0.2102860), wk =   0.0012346
        k(  341) = (   0.1666667   0.9943255   0.0000000), wk =   0.0012346
        k(  342) = (   0.1666667   0.9943255   0.0525715), wk =   0.0012346
        k(  343) = (   0.1666667   0.9943255   0.1051430), wk =   0.0012346
        k(  344) = (   0.1666667   0.9943255   0.1577145), wk =   0.0012346
        k(  345) = (   0.1666667   0.9943255   0.2102860), wk =   0.0012346
        k(  346) = (   0.1666667   1.0584755   0.0000000), wk =   0.0012346
        k(  347) = (   0.1666667   1.0584755   0.0525715), wk =   0.0012346
        k(  348) = (   0.1666667   1.0584755   0.1051430), wk =   0.0012346
        k(  349) = (   0.1666667   1.0584755   0.1577145), wk =   0.0012346
        k(  350) = (   0.1666667   1.0584755   0.2102860), wk =   0.0012346
        k(  351) = (   0.1666667   1.1226255   0.0000000), wk =   0.0012346
        k(  352) = (   0.1666667   1.1226255   0.0525715), wk =   0.0012346
        k(  353) = (   0.1666667   1.1226255   0.1051430), wk =   0.0012346
        k(  354) = (   0.1666667   1.1226255   0.1577145), wk =   0.0012346
        k(  355) = (   0.1666667   1.1226255   0.2102860), wk =   0.0012346
        k(  356) = (   0.1666667   1.1867756   0.0000000), wk =   0.0012346
        k(  357) = (   0.1666667   1.1867756   0.0525715), wk =   0.0012346
        k(  358) = (   0.1666667   1.1867756   0.1051430), wk =   0.0012346
        k(  359) = (   0.1666667   1.1867756   0.1577145), wk =   0.0012346
        k(  360) = (   0.1666667   1.1867756   0.2102860), wk =   0.0012346
        k(  361) = (   0.2222222   0.1283001   0.0000000), wk =   0.0012346
        k(  362) = (   0.2222222   0.1283001   0.0525715), wk =   0.0012346
        k(  363) = (   0.2222222   0.1283001   0.1051430), wk =   0.0012346
        k(  364) = (   0.2222222   0.1283001   0.1577145), wk =   0.0012346
        k(  365) = (   0.2222222   0.1283001   0.2102860), wk =   0.0012346
        k(  366) = (   0.2222222   0.1924501   0.0000000), wk =   0.0012346
        k(  367) = (   0.2222222   0.1924501   0.0525715), wk =   0.0012346
        k(  368) = (   0.2222222   0.1924501   0.1051430), wk =   0.0012346
        k(  369) = (   0.2222222   0.1924501   0.1577145), wk =   0.0012346
        k(  370) = (   0.2222222   0.1924501   0.2102860), wk =   0.0012346
        k(  371) = (   0.2222222   0.2566001   0.0000000), wk =   0.0012346
        k(  372) = (   0.2222222   0.2566001   0.0525715), wk =   0.0012346
        k(  373) = (   0.2222222   0.2566001   0.1051430), wk =   0.0012346
        k(  374) = (   0.2222222   0.2566001   0.1577145), wk =   0.0012346
        k(  375) = (   0.2222222   0.2566001   0.2102860), wk =   0.0012346
        k(  376) = (   0.2222222   0.3207502   0.0000000), wk =   0.0012346
        k(  377) = (   0.2222222   0.3207502   0.0525715), wk =   0.0012346
        k(  378) = (   0.2222222   0.3207502   0.1051430), wk =   0.0012346
        k(  379) = (   0.2222222   0.3207502   0.1577145), wk =   0.0012346
        k(  380) = (   0.2222222   0.3207502   0.2102860), wk =   0.0012346
        k(  381) = (   0.2222222   0.3849002   0.0000000), wk =   0.0012346
        k(  382) = (   0.2222222   0.3849002   0.0525715), wk =   0.0012346
        k(  383) = (   0.2222222   0.3849002   0.1051430), wk =   0.0012346
        k(  384) = (   0.2222222   0.3849002   0.1577145), wk =   0.0012346
        k(  385) = (   0.2222222   0.3849002   0.2102860), wk =   0.0012346
        k(  386) = (   0.2222222   0.4490502   0.0000000), wk =   0.0012346
        k(  387) = (   0.2222222   0.4490502   0.0525715), wk =   0.0012346
        k(  388) = (   0.2222222   0.4490502   0.1051430), wk =   0.0012346
        k(  389) = (   0.2222222   0.4490502   0.1577145), wk =   0.0012346
        k(  390) = (   0.2222222   0.4490502   0.2102860), wk =   0.0012346
        k(  391) = (   0.2222222   0.5132002   0.0000000), wk =   0.0012346
        k(  392) = (   0.2222222   0.5132002   0.0525715), wk =   0.0012346
        k(  393) = (   0.2222222   0.5132002   0.1051430), wk =   0.0012346
        k(  394) = (   0.2222222   0.5132002   0.1577145), wk =   0.0012346
        k(  395) = (   0.2222222   0.5132002   0.2102860), wk =   0.0012346
        k(  396) = (   0.2222222   0.5773503   0.0000000), wk =   0.0012346
        k(  397) = (   0.2222222   0.5773503   0.0525715), wk =   0.0012346
        k(  398) = (   0.2222222   0.5773503   0.1051430), wk =   0.0012346
        k(  399) = (   0.2222222   0.5773503   0.1577145), wk =   0.0012346
        k(  400) = (   0.2222222   0.5773503   0.2102860), wk =   0.0012346
        k(  401) = (   0.2222222   0.6415003   0.0000000), wk =   0.0012346
        k(  402) = (   0.2222222   0.6415003   0.0525715), wk =   0.0012346
        k(  403) = (   0.2222222   0.6415003   0.1051430), wk =   0.0012346
        k(  404) = (   0.2222222   0.6415003   0.1577145), wk =   0.0012346
        k(  405) = (   0.2222222   0.6415003   0.2102860), wk =   0.0012346
        k(  406) = (   0.2222222   0.7056503   0.0000000), wk =   0.0012346
        k(  407) = (   0.2222222   0.7056503   0.0525715), wk =   0.0012346
        k(  408) = (   0.2222222   0.7056503   0.1051430), wk =   0.0012346
        k(  409) = (   0.2222222   0.7056503   0.1577145), wk =   0.0012346
        k(  410) = (   0.2222222   0.7056503   0.2102860), wk =   0.0012346
        k(  411) = (   0.2222222   0.7698004   0.0000000), wk =   0.0012346
        k(  412) = (   0.2222222   0.7698004   0.0525715), wk =   0.0012346
        k(  413) = (   0.2222222   0.7698004   0.1051430), wk =   0.0012346
        k(  414) = (   0.2222222   0.7698004   0.1577145), wk =   0.0012346
        k(  415) = (   0.2222222   0.7698004   0.2102860), wk =   0.0012346
        k(  416) = (   0.2222222   0.8339504   0.0000000), wk =   0.0012346
        k(  417) = (   0.2222222   0.8339504   0.0525715), wk =   0.0012346
        k(  418) = (   0.2222222   0.8339504   0.1051430), wk =   0.0012346
        k(  419) = (   0.2222222   0.8339504   0.1577145), wk =   0.0012346
        k(  420) = (   0.2222222   0.8339504   0.2102860), wk =   0.0012346
        k(  421) = (   0.2222222   0.8981004   0.0000000), wk =   0.0012346
        k(  422) = (   0.2222222   0.8981004   0.0525715), wk =   0.0012346
        k(  423) = (   0.2222222   0.8981004   0.1051430), wk =   0.0012346
        k(  424) = (   0.2222222   0.8981004   0.1577145), wk =   0.0012346
        k(  425) = (   0.2222222   0.8981004   0.2102860), wk =   0.0012346
        k(  426) = (   0.2222222   0.9622504   0.0000000), wk =   0.0012346
        k(  427) = (   0.2222222   0.9622504   0.0525715), wk =   0.0012346
        k(  428) = (   0.2222222   0.9622504   0.1051430), wk =   0.0012346
        k(  429) = (   0.2222222   0.9622504   0.1577145), wk =   0.0012346
        k(  430) = (   0.2222222   0.9622504   0.2102860), wk =   0.0012346
        k(  431) = (   0.2222222   1.0264005   0.0000000), wk =   0.0012346
        k(  432) = (   0.2222222   1.0264005   0.0525715), wk =   0.0012346
        k(  433) = (   0.2222222   1.0264005   0.1051430), wk =   0.0012346
        k(  434) = (   0.2222222   1.0264005   0.1577145), wk =   0.0012346
        k(  435) = (   0.2222222   1.0264005   0.2102860), wk =   0.0012346
        k(  436) = (   0.2222222   1.0905505   0.0000000), wk =   0.0012346
        k(  437) = (   0.2222222   1.0905505   0.0525715), wk =   0.0012346
        k(  438) = (   0.2222222   1.0905505   0.1051430), wk =   0.0012346
        k(  439) = (   0.2222222   1.0905505   0.1577145), wk =   0.0012346
        k(  440) = (   0.2222222   1.0905505   0.2102860), wk =   0.0012346
        k(  441) = (   0.2222222   1.1547005   0.0000000), wk =   0.0012346
        k(  442) = (   0.2222222   1.1547005   0.0525715), wk =   0.0012346
        k(  443) = (   0.2222222   1.1547005   0.1051430), wk =   0.0012346
        k(  444) = (   0.2222222   1.1547005   0.1577145), wk =   0.0012346
        k(  445) = (   0.2222222   1.1547005   0.2102860), wk =   0.0012346
        k(  446) = (   0.2222222   1.2188506   0.0000000), wk =   0.0012346
        k(  447) = (   0.2222222   1.2188506   0.0525715), wk =   0.0012346
        k(  448) = (   0.2222222   1.2188506   0.1051430), wk =   0.0012346
        k(  449) = (   0.2222222   1.2188506   0.1577145), wk =   0.0012346
        k(  450) = (   0.2222222   1.2188506   0.2102860), wk =   0.0012346
        k(  451) = (   0.2777778   0.1603751   0.0000000), wk =   0.0012346
        k(  452) = (   0.2777778   0.1603751   0.0525715), wk =   0.0012346
        k(  453) = (   0.2777778   0.1603751   0.1051430), wk =   0.0012346
        k(  454) = (   0.2777778   0.1603751   0.1577145), wk =   0.0012346
        k(  455) = (   0.2777778   0.1603751   0.2102860), wk =   0.0012346
        k(  456) = (   0.2777778   0.2245251   0.0000000), wk =   0.0012346
        k(  457) = (   0.2777778   0.2245251   0.0525715), wk =   0.0012346
        k(  458) = (   0.2777778   0.2245251   0.1051430), wk =   0.0012346
        k(  459) = (   0.2777778   0.2245251   0.1577145), wk =   0.0012346
        k(  460) = (   0.2777778   0.2245251   0.2102860), wk =   0.0012346
        k(  461) = (   0.2777778   0.2886751   0.0000000), wk =   0.0012346
        k(  462) = (   0.2777778   0.2886751   0.0525715), wk =   0.0012346
        k(  463) = (   0.2777778   0.2886751   0.1051430), wk =   0.0012346
        k(  464) = (   0.2777778   0.2886751   0.1577145), wk =   0.0012346
        k(  465) = (   0.2777778   0.2886751   0.2102860), wk =   0.0012346
        k(  466) = (   0.2777778   0.3528252   0.0000000), wk =   0.0012346
        k(  467) = (   0.2777778   0.3528252   0.0525715), wk =   0.0012346
        k(  468) = (   0.2777778   0.3528252   0.1051430), wk =   0.0012346
        k(  469) = (   0.2777778   0.3528252   0.1577145), wk =   0.0012346
        k(  470) = (   0.2777778   0.3528252   0.2102860), wk =   0.0012346
        k(  471) = (   0.2777778   0.4169752   0.0000000), wk =   0.0012346
        k(  472) = (   0.2777778   0.4169752   0.0525715), wk =   0.0012346
        k(  473) = (   0.2777778   0.4169752   0.1051430), wk =   0.0012346
        k(  474) = (   0.2777778   0.4169752   0.1577145), wk =   0.0012346
        k(  475) = (   0.2777778   0.4169752   0.2102860), wk =   0.0012346
        k(  476) = (   0.2777778   0.4811252   0.0000000), wk =   0.0012346
        k(  477) = (   0.2777778   0.4811252   0.0525715), wk =   0.0012346
        k(  478) = (   0.2777778   0.4811252   0.1051430), wk =   0.0012346
        k(  479) = (   0.2777778   0.4811252   0.1577145), wk =   0.0012346
        k(  480) = (   0.2777778   0.4811252   0.2102860), wk =   0.0012346
        k(  481) = (   0.2777778   0.5452753   0.0000000), wk =   0.0012346
        k(  482) = (   0.2777778   0.5452753   0.0525715), wk =   0.0012346
        k(  483) = (   0.2777778   0.5452753   0.1051430), wk =   0.0012346
        k(  484) = (   0.2777778   0.5452753   0.1577145), wk =   0.0012346
        k(  485) = (   0.2777778   0.5452753   0.2102860), wk =   0.0012346
        k(  486) = (   0.2777778   0.6094253   0.0000000), wk =   0.0012346
        k(  487) = (   0.2777778   0.6094253   0.0525715), wk =   0.0012346
        k(  488) = (   0.2777778   0.6094253   0.1051430), wk =   0.0012346
        k(  489) = (   0.2777778   0.6094253   0.1577145), wk =   0.0012346
        k(  490) = (   0.2777778   0.6094253   0.2102860), wk =   0.0012346
        k(  491) = (   0.2777778   0.6735753   0.0000000), wk =   0.0012346
        k(  492) = (   0.2777778   0.6735753   0.0525715), wk =   0.0012346
        k(  493) = (   0.2777778   0.6735753   0.1051430), wk =   0.0012346
        k(  494) = (   0.2777778   0.6735753   0.1577145), wk =   0.0012346
        k(  495) = (   0.2777778   0.6735753   0.2102860), wk =   0.0012346
        k(  496) = (   0.2777778   0.7377253   0.0000000), wk =   0.0012346
        k(  497) = (   0.2777778   0.7377253   0.0525715), wk =   0.0012346
        k(  498) = (   0.2777778   0.7377253   0.1051430), wk =   0.0012346
        k(  499) = (   0.2777778   0.7377253   0.1577145), wk =   0.0012346
        k(  500) = (   0.2777778   0.7377253   0.2102860), wk =   0.0012346
        k(  501) = (   0.2777778   0.8018754   0.0000000), wk =   0.0012346
        k(  502) = (   0.2777778   0.8018754   0.0525715), wk =   0.0012346
        k(  503) = (   0.2777778   0.8018754   0.1051430), wk =   0.0012346
        k(  504) = (   0.2777778   0.8018754   0.1577145), wk =   0.0012346
        k(  505) = (   0.2777778   0.8018754   0.2102860), wk =   0.0012346
        k(  506) = (   0.2777778   0.8660254   0.0000000), wk =   0.0012346
        k(  507) = (   0.2777778   0.8660254   0.0525715), wk =   0.0012346
        k(  508) = (   0.2777778   0.8660254   0.1051430), wk =   0.0012346
        k(  509) = (   0.2777778   0.8660254   0.1577145), wk =   0.0012346
        k(  510) = (   0.2777778   0.8660254   0.2102860), wk =   0.0012346
        k(  511) = (   0.2777778   0.9301754   0.0000000), wk =   0.0012346
        k(  512) = (   0.2777778   0.9301754   0.0525715), wk =   0.0012346
        k(  513) = (   0.2777778   0.9301754   0.1051430), wk =   0.0012346
        k(  514) = (   0.2777778   0.9301754   0.1577145), wk =   0.0012346
        k(  515) = (   0.2777778   0.9301754   0.2102860), wk =   0.0012346
        k(  516) = (   0.2777778   0.9943255   0.0000000), wk =   0.0012346
        k(  517) = (   0.2777778   0.9943255   0.0525715), wk =   0.0012346
        k(  518) = (   0.2777778   0.9943255   0.1051430), wk =   0.0012346
        k(  519) = (   0.2777778   0.9943255   0.1577145), wk =   0.0012346
        k(  520) = (   0.2777778   0.9943255   0.2102860), wk =   0.0012346
        k(  521) = (   0.2777778   1.0584755   0.0000000), wk =   0.0012346
        k(  522) = (   0.2777778   1.0584755   0.0525715), wk =   0.0012346
        k(  523) = (   0.2777778   1.0584755   0.1051430), wk =   0.0012346
        k(  524) = (   0.2777778   1.0584755   0.1577145), wk =   0.0012346
        k(  525) = (   0.2777778   1.0584755   0.2102860), wk =   0.0012346
        k(  526) = (   0.2777778   1.1226255   0.0000000), wk =   0.0012346
        k(  527) = (   0.2777778   1.1226255   0.0525715), wk =   0.0012346
        k(  528) = (   0.2777778   1.1226255   0.1051430), wk =   0.0012346
        k(  529) = (   0.2777778   1.1226255   0.1577145), wk =   0.0012346
        k(  530) = (   0.2777778   1.1226255   0.2102860), wk =   0.0012346
        k(  531) = (   0.2777778   1.1867756   0.0000000), wk =   0.0012346
        k(  532) = (   0.2777778   1.1867756   0.0525715), wk =   0.0012346
        k(  533) = (   0.2777778   1.1867756   0.1051430), wk =   0.0012346
        k(  534) = (   0.2777778   1.1867756   0.1577145), wk =   0.0012346
        k(  535) = (   0.2777778   1.1867756   0.2102860), wk =   0.0012346
        k(  536) = (   0.2777778   1.2509256   0.0000000), wk =   0.0012346
        k(  537) = (   0.2777778   1.2509256   0.0525715), wk =   0.0012346
        k(  538) = (   0.2777778   1.2509256   0.1051430), wk =   0.0012346
        k(  539) = (   0.2777778   1.2509256   0.1577145), wk =   0.0012346
        k(  540) = (   0.2777778   1.2509256   0.2102860), wk =   0.0012346
        k(  541) = (   0.3333333   0.1924501   0.0000000), wk =   0.0012346
        k(  542) = (   0.3333333   0.1924501   0.0525715), wk =   0.0012346
        k(  543) = (   0.3333333   0.1924501   0.1051430), wk =   0.0012346
        k(  544) = (   0.3333333   0.1924501   0.1577145), wk =   0.0012346
        k(  545) = (   0.3333333   0.1924501   0.2102860), wk =   0.0012346
        k(  546) = (   0.3333333   0.2566001   0.0000000), wk =   0.0012346
        k(  547) = (   0.3333333   0.2566001   0.0525715), wk =   0.0012346
        k(  548) = (   0.3333333   0.2566001   0.1051430), wk =   0.0012346
        k(  549) = (   0.3333333   0.2566001   0.1577145), wk =   0.0012346
        k(  550) = (   0.3333333   0.2566001   0.2102860), wk =   0.0012346
        k(  551) = (   0.3333333   0.3207501   0.0000000), wk =   0.0012346
        k(  552) = (   0.3333333   0.3207501   0.0525715), wk =   0.0012346
        k(  553) = (   0.3333333   0.3207501   0.1051430), wk =   0.0012346
        k(  554) = (   0.3333333   0.3207501   0.1577145), wk =   0.0012346
        k(  555) = (   0.3333333   0.3207501   0.2102860), wk =   0.0012346
        k(  556) = (   0.3333333   0.3849002   0.0000000), wk =   0.0012346
        k(  557) = (   0.3333333   0.3849002   0.0525715), wk =   0.0012346
        k(  558) = (   0.3333333   0.3849002   0.1051430), wk =   0.0012346
        k(  559) = (   0.3333333   0.3849002   0.1577145), wk =   0.0012346
        k(  560) = (   0.3333333   0.3849002   0.2102860), wk =   0.0012346
        k(  561) = (   0.3333333   0.4490502   0.0000000), wk =   0.0012346
        k(  562) = (   0.3333333   0.4490502   0.0525715), wk =   0.0012346
        k(  563) = (   0.3333333   0.4490502   0.1051430), wk =   0.0012346
        k(  564) = (   0.3333333   0.4490502   0.1577145), wk =   0.0012346
        k(  565) = (   0.3333333   0.4490502   0.2102860), wk =   0.0012346
        k(  566) = (   0.3333333   0.5132002   0.0000000), wk =   0.0012346
        k(  567) = (   0.3333333   0.5132002   0.0525715), wk =   0.0012346
        k(  568) = (   0.3333333   0.5132002   0.1051430), wk =   0.0012346
        k(  569) = (   0.3333333   0.5132002   0.1577145), wk =   0.0012346
        k(  570) = (   0.3333333   0.5132002   0.2102860), wk =   0.0012346
        k(  571) = (   0.3333333   0.5773503   0.0000000), wk =   0.0012346
        k(  572) = (   0.3333333   0.5773503   0.0525715), wk =   0.0012346
        k(  573) = (   0.3333333   0.5773503   0.1051430), wk =   0.0012346
        k(  574) = (   0.3333333   0.5773503   0.1577145), wk =   0.0012346
        k(  575) = (   0.3333333   0.5773503   0.2102860), wk =   0.0012346
        k(  576) = (   0.3333333   0.6415003   0.0000000), wk =   0.0012346
        k(  577) = (   0.3333333   0.6415003   0.0525715), wk =   0.0012346
        k(  578) = (   0.3333333   0.6415003   0.1051430), wk =   0.0012346
        k(  579) = (   0.3333333   0.6415003   0.1577145), wk =   0.0012346
        k(  580) = (   0.3333333   0.6415003   0.2102860), wk =   0.0012346
        k(  581) = (   0.3333333   0.7056503   0.0000000), wk =   0.0012346
        k(  582) = (   0.3333333   0.7056503   0.0525715), wk =   0.0012346
        k(  583) = (   0.3333333   0.7056503   0.1051430), wk =   0.0012346
        k(  584) = (   0.3333333   0.7056503   0.1577145), wk =   0.0012346
        k(  585) = (   0.3333333   0.7056503   0.2102860), wk =   0.0012346
        k(  586) = (   0.3333333   0.7698004   0.0000000), wk =   0.0012346
        k(  587) = (   0.3333333   0.7698004   0.0525715), wk =   0.0012346
        k(  588) = (   0.3333333   0.7698004   0.1051430), wk =   0.0012346
        k(  589) = (   0.3333333   0.7698004   0.1577145), wk =   0.0012346
        k(  590) = (   0.3333333   0.7698004   0.2102860), wk =   0.0012346
        k(  591) = (   0.3333333   0.8339504   0.0000000), wk =   0.0012346
        k(  592) = (   0.3333333   0.8339504   0.0525715), wk =   0.0012346
        k(  593) = (   0.3333333   0.8339504   0.1051430), wk =   0.0012346
        k(  594) = (   0.3333333   0.8339504   0.1577145), wk =   0.0012346
        k(  595) = (   0.3333333   0.8339504   0.2102860), wk =   0.0012346
        k(  596) = (   0.3333333   0.8981004   0.0000000), wk =   0.0012346
        k(  597) = (   0.3333333   0.8981004   0.0525715), wk =   0.0012346
        k(  598) = (   0.3333333   0.8981004   0.1051430), wk =   0.0012346
        k(  599) = (   0.3333333   0.8981004   0.1577145), wk =   0.0012346
        k(  600) = (   0.3333333   0.8981004   0.2102860), wk =   0.0012346
        k(  601) = (   0.3333333   0.9622505   0.0000000), wk =   0.0012346
        k(  602) = (   0.3333333   0.9622505   0.0525715), wk =   0.0012346
        k(  603) = (   0.3333333   0.9622505   0.1051430), wk =   0.0012346
        k(  604) = (   0.3333333   0.9622505   0.1577145), wk =   0.0012346
        k(  605) = (   0.3333333   0.9622505   0.2102860), wk =   0.0012346
        k(  606) = (   0.3333333   1.0264005   0.0000000), wk =   0.0012346
        k(  607) = (   0.3333333   1.0264005   0.0525715), wk =   0.0012346
        k(  608) = (   0.3333333   1.0264005   0.1051430), wk =   0.0012346
        k(  609) = (   0.3333333   1.0264005   0.1577145), wk =   0.0012346
        k(  610) = (   0.3333333   1.0264005   0.2102860), wk =   0.0012346
        k(  611) = (   0.3333333   1.0905505   0.0000000), wk =   0.0012346
        k(  612) = (   0.3333333   1.0905505   0.0525715), wk =   0.0012346
        k(  613) = (   0.3333333   1.0905505   0.1051430), wk =   0.0012346
        k(  614) = (   0.3333333   1.0905505   0.1577145), wk =   0.0012346
        k(  615) = (   0.3333333   1.0905505   0.2102860), wk =   0.0012346
        k(  616) = (   0.3333333   1.1547005   0.0000000), wk =   0.0012346
        k(  617) = (   0.3333333   1.1547005   0.0525715), wk =   0.0012346
        k(  618) = (   0.3333333   1.1547005   0.1051430), wk =   0.0012346
        k(  619) = (   0.3333333   1.1547005   0.1577145), wk =   0.0012346
        k(  620) = (   0.3333333   1.1547005   0.2102860), wk =   0.0012346
        k(  621) = (   0.3333333   1.2188506   0.0000000), wk =   0.0012346
        k(  622) = (   0.3333333   1.2188506   0.0525715), wk =   0.0012346
        k(  623) = (   0.3333333   1.2188506   0.1051430), wk =   0.0012346
        k(  624) = (   0.3333333   1.2188506   0.1577145), wk =   0.0012346
        k(  625) = (   0.3333333   1.2188506   0.2102860), wk =   0.0012346
        k(  626) = (   0.3333333   1.2830006   0.0000000), wk =   0.0012346
        k(  627) = (   0.3333333   1.2830006   0.0525715), wk =   0.0012346
        k(  628) = (   0.3333333   1.2830006   0.1051430), wk =   0.0012346
        k(  629) = (   0.3333333   1.2830006   0.1577145), wk =   0.0012346
        k(  630) = (   0.3333333   1.2830006   0.2102860), wk =   0.0012346
        k(  631) = (   0.3888889   0.2245251   0.0000000), wk =   0.0012346
        k(  632) = (   0.3888889   0.2245251   0.0525715), wk =   0.0012346
        k(  633) = (   0.3888889   0.2245251   0.1051430), wk =   0.0012346
        k(  634) = (   0.3888889   0.2245251   0.1577145), wk =   0.0012346
        k(  635) = (   0.3888889   0.2245251   0.2102860), wk =   0.0012346
        k(  636) = (   0.3888889   0.2886751   0.0000000), wk =   0.0012346
        k(  637) = (   0.3888889   0.2886751   0.0525715), wk =   0.0012346
        k(  638) = (   0.3888889   0.2886751   0.1051430), wk =   0.0012346
        k(  639) = (   0.3888889   0.2886751   0.1577145), wk =   0.0012346
        k(  640) = (   0.3888889   0.2886751   0.2102860), wk =   0.0012346
        k(  641) = (   0.3888889   0.3528252   0.0000000), wk =   0.0012346
        k(  642) = (   0.3888889   0.3528252   0.0525715), wk =   0.0012346
        k(  643) = (   0.3888889   0.3528252   0.1051430), wk =   0.0012346
        k(  644) = (   0.3888889   0.3528252   0.1577145), wk =   0.0012346
        k(  645) = (   0.3888889   0.3528252   0.2102860), wk =   0.0012346
        k(  646) = (   0.3888889   0.4169752   0.0000000), wk =   0.0012346
        k(  647) = (   0.3888889   0.4169752   0.0525715), wk =   0.0012346
        k(  648) = (   0.3888889   0.4169752   0.1051430), wk =   0.0012346
        k(  649) = (   0.3888889   0.4169752   0.1577145), wk =   0.0012346
        k(  650) = (   0.3888889   0.4169752   0.2102860), wk =   0.0012346
        k(  651) = (   0.3888889   0.4811252   0.0000000), wk =   0.0012346
        k(  652) = (   0.3888889   0.4811252   0.0525715), wk =   0.0012346
        k(  653) = (   0.3888889   0.4811252   0.1051430), wk =   0.0012346
        k(  654) = (   0.3888889   0.4811252   0.1577145), wk =   0.0012346
        k(  655) = (   0.3888889   0.4811252   0.2102860), wk =   0.0012346
        k(  656) = (   0.3888889   0.5452753   0.0000000), wk =   0.0012346
        k(  657) = (   0.3888889   0.5452753   0.0525715), wk =   0.0012346
        k(  658) = (   0.3888889   0.5452753   0.1051430), wk =   0.0012346
        k(  659) = (   0.3888889   0.5452753   0.1577145), wk =   0.0012346
        k(  660) = (   0.3888889   0.5452753   0.2102860), wk =   0.0012346
        k(  661) = (   0.3888889   0.6094253   0.0000000), wk =   0.0012346
        k(  662) = (   0.3888889   0.6094253   0.0525715), wk =   0.0012346
        k(  663) = (   0.3888889   0.6094253   0.1051430), wk =   0.0012346
        k(  664) = (   0.3888889   0.6094253   0.1577145), wk =   0.0012346
        k(  665) = (   0.3888889   0.6094253   0.2102860), wk =   0.0012346
        k(  666) = (   0.3888889   0.6735753   0.0000000), wk =   0.0012346
        k(  667) = (   0.3888889   0.6735753   0.0525715), wk =   0.0012346
        k(  668) = (   0.3888889   0.6735753   0.1051430), wk =   0.0012346
        k(  669) = (   0.3888889   0.6735753   0.1577145), wk =   0.0012346
        k(  670) = (   0.3888889   0.6735753   0.2102860), wk =   0.0012346
        k(  671) = (   0.3888889   0.7377253   0.0000000), wk =   0.0012346
        k(  672) = (   0.3888889   0.7377253   0.0525715), wk =   0.0012346
        k(  673) = (   0.3888889   0.7377253   0.1051430), wk =   0.0012346
        k(  674) = (   0.3888889   0.7377253   0.1577145), wk =   0.0012346
        k(  675) = (   0.3888889   0.7377253   0.2102860), wk =   0.0012346
        k(  676) = (   0.3888889   0.8018754   0.0000000), wk =   0.0012346
        k(  677) = (   0.3888889   0.8018754   0.0525715), wk =   0.0012346
        k(  678) = (   0.3888889   0.8018754   0.1051430), wk =   0.0012346
        k(  679) = (   0.3888889   0.8018754   0.1577145), wk =   0.0012346
        k(  680) = (   0.3888889   0.8018754   0.2102860), wk =   0.0012346
        k(  681) = (   0.3888889   0.8660254   0.0000000), wk =   0.0012346
        k(  682) = (   0.3888889   0.8660254   0.0525715), wk =   0.0012346
        k(  683) = (   0.3888889   0.8660254   0.1051430), wk =   0.0012346
        k(  684) = (   0.3888889   0.8660254   0.1577145), wk =   0.0012346
        k(  685) = (   0.3888889   0.8660254   0.2102860), wk =   0.0012346
        k(  686) = (   0.3888889   0.9301754   0.0000000), wk =   0.0012346
        k(  687) = (   0.3888889   0.9301754   0.0525715), wk =   0.0012346
        k(  688) = (   0.3888889   0.9301754   0.1051430), wk =   0.0012346
        k(  689) = (   0.3888889   0.9301754   0.1577145), wk =   0.0012346
        k(  690) = (   0.3888889   0.9301754   0.2102860), wk =   0.0012346
        k(  691) = (   0.3888889   0.9943255   0.0000000), wk =   0.0012346
        k(  692) = (   0.3888889   0.9943255   0.0525715), wk =   0.0012346
        k(  693) = (   0.3888889   0.9943255   0.1051430), wk =   0.0012346
        k(  694) = (   0.3888889   0.9943255   0.1577145), wk =   0.0012346
        k(  695) = (   0.3888889   0.9943255   0.2102860), wk =   0.0012346
        k(  696) = (   0.3888889   1.0584755   0.0000000), wk =   0.0012346
        k(  697) = (   0.3888889   1.0584755   0.0525715), wk =   0.0012346
        k(  698) = (   0.3888889   1.0584755   0.1051430), wk =   0.0012346
        k(  699) = (   0.3888889   1.0584755   0.1577145), wk =   0.0012346
        k(  700) = (   0.3888889   1.0584755   0.2102860), wk =   0.0012346
        k(  701) = (   0.3888889   1.1226255   0.0000000), wk =   0.0012346
        k(  702) = (   0.3888889   1.1226255   0.0525715), wk =   0.0012346
        k(  703) = (   0.3888889   1.1226255   0.1051430), wk =   0.0012346
        k(  704) = (   0.3888889   1.1226255   0.1577145), wk =   0.0012346
        k(  705) = (   0.3888889   1.1226255   0.2102860), wk =   0.0012346
        k(  706) = (   0.3888889   1.1867756   0.0000000), wk =   0.0012346
        k(  707) = (   0.3888889   1.1867756   0.0525715), wk =   0.0012346
        k(  708) = (   0.3888889   1.1867756   0.1051430), wk =   0.0012346
        k(  709) = (   0.3888889   1.1867756   0.1577145), wk =   0.0012346
        k(  710) = (   0.3888889   1.1867756   0.2102860), wk =   0.0012346
        k(  711) = (   0.3888889   1.2509256   0.0000000), wk =   0.0012346
        k(  712) = (   0.3888889   1.2509256   0.0525715), wk =   0.0012346
        k(  713) = (   0.3888889   1.2509256   0.1051430), wk =   0.0012346
        k(  714) = (   0.3888889   1.2509256   0.1577145), wk =   0.0012346
        k(  715) = (   0.3888889   1.2509256   0.2102860), wk =   0.0012346
        k(  716) = (   0.3888889   1.3150756   0.0000000), wk =   0.0012346
        k(  717) = (   0.3888889   1.3150756   0.0525715), wk =   0.0012346
        k(  718) = (   0.3888889   1.3150756   0.1051430), wk =   0.0012346
        k(  719) = (   0.3888889   1.3150756   0.1577145), wk =   0.0012346
        k(  720) = (   0.3888889   1.3150756   0.2102860), wk =   0.0012346
        k(  721) = (   0.4444444   0.2566001   0.0000000), wk =   0.0012346
        k(  722) = (   0.4444444   0.2566001   0.0525715), wk =   0.0012346
        k(  723) = (   0.4444444   0.2566001   0.1051430), wk =   0.0012346
        k(  724) = (   0.4444444   0.2566001   0.1577145), wk =   0.0012346
        k(  725) = (   0.4444444   0.2566001   0.2102860), wk =   0.0012346
        k(  726) = (   0.4444444   0.3207502   0.0000000), wk =   0.0012346
        k(  727) = (   0.4444444   0.3207502   0.0525715), wk =   0.0012346
        k(  728) = (   0.4444444   0.3207502   0.1051430), wk =   0.0012346
        k(  729) = (   0.4444444   0.3207502   0.1577145), wk =   0.0012346
        k(  730) = (   0.4444444   0.3207502   0.2102860), wk =   0.0012346
        k(  731) = (   0.4444444   0.3849002   0.0000000), wk =   0.0012346
        k(  732) = (   0.4444444   0.3849002   0.0525715), wk =   0.0012346
        k(  733) = (   0.4444444   0.3849002   0.1051430), wk =   0.0012346
        k(  734) = (   0.4444444   0.3849002   0.1577145), wk =   0.0012346
        k(  735) = (   0.4444444   0.3849002   0.2102860), wk =   0.0012346
        k(  736) = (   0.4444444   0.4490502   0.0000000), wk =   0.0012346
        k(  737) = (   0.4444444   0.4490502   0.0525715), wk =   0.0012346
        k(  738) = (   0.4444444   0.4490502   0.1051430), wk =   0.0012346
        k(  739) = (   0.4444444   0.4490502   0.1577145), wk =   0.0012346
        k(  740) = (   0.4444444   0.4490502   0.2102860), wk =   0.0012346
        k(  741) = (   0.4444444   0.5132002   0.0000000), wk =   0.0012346
        k(  742) = (   0.4444444   0.5132002   0.0525715), wk =   0.0012346
        k(  743) = (   0.4444444   0.5132002   0.1051430), wk =   0.0012346
        k(  744) = (   0.4444444   0.5132002   0.1577145), wk =   0.0012346
        k(  745) = (   0.4444444   0.5132002   0.2102860), wk =   0.0012346
        k(  746) = (   0.4444444   0.5773503   0.0000000), wk =   0.0012346
        k(  747) = (   0.4444444   0.5773503   0.0525715), wk =   0.0012346
        k(  748) = (   0.4444444   0.5773503   0.1051430), wk =   0.0012346
        k(  749) = (   0.4444444   0.5773503   0.1577145), wk =   0.0012346
        k(  750) = (   0.4444444   0.5773503   0.2102860), wk =   0.0012346
        k(  751) = (   0.4444444   0.6415003   0.0000000), wk =   0.0012346
        k(  752) = (   0.4444444   0.6415003   0.0525715), wk =   0.0012346
        k(  753) = (   0.4444444   0.6415003   0.1051430), wk =   0.0012346
        k(  754) = (   0.4444444   0.6415003   0.1577145), wk =   0.0012346
        k(  755) = (   0.4444444   0.6415003   0.2102860), wk =   0.0012346
        k(  756) = (   0.4444444   0.7056503   0.0000000), wk =   0.0012346
        k(  757) = (   0.4444444   0.7056503   0.0525715), wk =   0.0012346
        k(  758) = (   0.4444444   0.7056503   0.1051430), wk =   0.0012346
        k(  759) = (   0.4444444   0.7056503   0.1577145), wk =   0.0012346
        k(  760) = (   0.4444444   0.7056503   0.2102860), wk =   0.0012346
        k(  761) = (   0.4444444   0.7698004   0.0000000), wk =   0.0012346
        k(  762) = (   0.4444444   0.7698004   0.0525715), wk =   0.0012346
        k(  763) = (   0.4444444   0.7698004   0.1051430), wk =   0.0012346
        k(  764) = (   0.4444444   0.7698004   0.1577145), wk =   0.0012346
        k(  765) = (   0.4444444   0.7698004   0.2102860), wk =   0.0012346
        k(  766) = (   0.4444444   0.8339504   0.0000000), wk =   0.0012346
        k(  767) = (   0.4444444   0.8339504   0.0525715), wk =   0.0012346
        k(  768) = (   0.4444444   0.8339504   0.1051430), wk =   0.0012346
        k(  769) = (   0.4444444   0.8339504   0.1577145), wk =   0.0012346
        k(  770) = (   0.4444444   0.8339504   0.2102860), wk =   0.0012346
        k(  771) = (   0.4444444   0.8981004   0.0000000), wk =   0.0012346
        k(  772) = (   0.4444444   0.8981004   0.0525715), wk =   0.0012346
        k(  773) = (   0.4444444   0.8981004   0.1051430), wk =   0.0012346
        k(  774) = (   0.4444444   0.8981004   0.1577145), wk =   0.0012346
        k(  775) = (   0.4444444   0.8981004   0.2102860), wk =   0.0012346
        k(  776) = (   0.4444444   0.9622504   0.0000000), wk =   0.0012346
        k(  777) = (   0.4444444   0.9622504   0.0525715), wk =   0.0012346
        k(  778) = (   0.4444444   0.9622504   0.1051430), wk =   0.0012346
        k(  779) = (   0.4444444   0.9622504   0.1577145), wk =   0.0012346
        k(  780) = (   0.4444444   0.9622504   0.2102860), wk =   0.0012346
        k(  781) = (   0.4444444   1.0264005   0.0000000), wk =   0.0012346
        k(  782) = (   0.4444444   1.0264005   0.0525715), wk =   0.0012346
        k(  783) = (   0.4444444   1.0264005   0.1051430), wk =   0.0012346
        k(  784) = (   0.4444444   1.0264005   0.1577145), wk =   0.0012346
        k(  785) = (   0.4444444   1.0264005   0.2102860), wk =   0.0012346
        k(  786) = (   0.4444444   1.0905505   0.0000000), wk =   0.0012346
        k(  787) = (   0.4444444   1.0905505   0.0525715), wk =   0.0012346
        k(  788) = (   0.4444444   1.0905505   0.1051430), wk =   0.0012346
        k(  789) = (   0.4444444   1.0905505   0.1577145), wk =   0.0012346
        k(  790) = (   0.4444444   1.0905505   0.2102860), wk =   0.0012346
        k(  791) = (   0.4444444   1.1547005   0.0000000), wk =   0.0012346
        k(  792) = (   0.4444444   1.1547005   0.0525715), wk =   0.0012346
        k(  793) = (   0.4444444   1.1547005   0.1051430), wk =   0.0012346
        k(  794) = (   0.4444444   1.1547005   0.1577145), wk =   0.0012346
        k(  795) = (   0.4444444   1.1547005   0.2102860), wk =   0.0012346
        k(  796) = (   0.4444444   1.2188506   0.0000000), wk =   0.0012346
        k(  797) = (   0.4444444   1.2188506   0.0525715), wk =   0.0012346
        k(  798) = (   0.4444444   1.2188506   0.1051430), wk =   0.0012346
        k(  799) = (   0.4444444   1.2188506   0.1577145), wk =   0.0012346
        k(  800) = (   0.4444444   1.2188506   0.2102860), wk =   0.0012346
        k(  801) = (   0.4444444   1.2830006   0.0000000), wk =   0.0012346
        k(  802) = (   0.4444444   1.2830006   0.0525715), wk =   0.0012346
        k(  803) = (   0.4444444   1.2830006   0.1051430), wk =   0.0012346
        k(  804) = (   0.4444444   1.2830006   0.1577145), wk =   0.0012346
        k(  805) = (   0.4444444   1.2830006   0.2102860), wk =   0.0012346
        k(  806) = (   0.4444444   1.3471506   0.0000000), wk =   0.0012346
        k(  807) = (   0.4444444   1.3471506   0.0525715), wk =   0.0012346
        k(  808) = (   0.4444444   1.3471506   0.1051430), wk =   0.0012346
        k(  809) = (   0.4444444   1.3471506   0.1577145), wk =   0.0012346
        k(  810) = (   0.4444444   1.3471506   0.2102860), wk =   0.0012346
        k(  811) = (   0.5000000   0.2886751   0.0000000), wk =   0.0012346
        k(  812) = (   0.5000000   0.2886751   0.0525715), wk =   0.0012346
        k(  813) = (   0.5000000   0.2886751   0.1051430), wk =   0.0012346
        k(  814) = (   0.5000000   0.2886751   0.1577145), wk =   0.0012346
        k(  815) = (   0.5000000   0.2886751   0.2102860), wk =   0.0012346
        k(  816) = (   0.5000000   0.3528252   0.0000000), wk =   0.0012346
        k(  817) = (   0.5000000   0.3528252   0.0525715), wk =   0.0012346
        k(  818) = (   0.5000000   0.3528252   0.1051430), wk =   0.0012346
        k(  819) = (   0.5000000   0.3528252   0.1577145), wk =   0.0012346
        k(  820) = (   0.5000000   0.3528252   0.2102860), wk =   0.0012346
        k(  821) = (   0.5000000   0.4169752   0.0000000), wk =   0.0012346
        k(  822) = (   0.5000000   0.4169752   0.0525715), wk =   0.0012346
        k(  823) = (   0.5000000   0.4169752   0.1051430), wk =   0.0012346
        k(  824) = (   0.5000000   0.4169752   0.1577145), wk =   0.0012346
        k(  825) = (   0.5000000   0.4169752   0.2102860), wk =   0.0012346
        k(  826) = (   0.5000000   0.4811252   0.0000000), wk =   0.0012346
        k(  827) = (   0.5000000   0.4811252   0.0525715), wk =   0.0012346
        k(  828) = (   0.5000000   0.4811252   0.1051430), wk =   0.0012346
        k(  829) = (   0.5000000   0.4811252   0.1577145), wk =   0.0012346
        k(  830) = (   0.5000000   0.4811252   0.2102860), wk =   0.0012346
        k(  831) = (   0.5000000   0.5452753   0.0000000), wk =   0.0012346
        k(  832) = (   0.5000000   0.5452753   0.0525715), wk =   0.0012346
        k(  833) = (   0.5000000   0.5452753   0.1051430), wk =   0.0012346
        k(  834) = (   0.5000000   0.5452753   0.1577145), wk =   0.0012346
        k(  835) = (   0.5000000   0.5452753   0.2102860), wk =   0.0012346
        k(  836) = (   0.5000000   0.6094253   0.0000000), wk =   0.0012346
        k(  837) = (   0.5000000   0.6094253   0.0525715), wk =   0.0012346
        k(  838) = (   0.5000000   0.6094253   0.1051430), wk =   0.0012346
        k(  839) = (   0.5000000   0.6094253   0.1577145), wk =   0.0012346
        k(  840) = (   0.5000000   0.6094253   0.2102860), wk =   0.0012346
        k(  841) = (   0.5000000   0.6735753   0.0000000), wk =   0.0012346
        k(  842) = (   0.5000000   0.6735753   0.0525715), wk =   0.0012346
        k(  843) = (   0.5000000   0.6735753   0.1051430), wk =   0.0012346
        k(  844) = (   0.5000000   0.6735753   0.1577145), wk =   0.0012346
        k(  845) = (   0.5000000   0.6735753   0.2102860), wk =   0.0012346
        k(  846) = (   0.5000000   0.7377253   0.0000000), wk =   0.0012346
        k(  847) = (   0.5000000   0.7377253   0.0525715), wk =   0.0012346
        k(  848) = (   0.5000000   0.7377253   0.1051430), wk =   0.0012346
        k(  849) = (   0.5000000   0.7377253   0.1577145), wk =   0.0012346
        k(  850) = (   0.5000000   0.7377253   0.2102860), wk =   0.0012346
        k(  851) = (   0.5000000   0.8018754   0.0000000), wk =   0.0012346
        k(  852) = (   0.5000000   0.8018754   0.0525715), wk =   0.0012346
        k(  853) = (   0.5000000   0.8018754   0.1051430), wk =   0.0012346
        k(  854) = (   0.5000000   0.8018754   0.1577145), wk =   0.0012346
        k(  855) = (   0.5000000   0.8018754   0.2102860), wk =   0.0012346
        k(  856) = (   0.5000000   0.8660254   0.0000000), wk =   0.0012346
        k(  857) = (   0.5000000   0.8660254   0.0525715), wk =   0.0012346
        k(  858) = (   0.5000000   0.8660254   0.1051430), wk =   0.0012346
        k(  859) = (   0.5000000   0.8660254   0.1577145), wk =   0.0012346
        k(  860) = (   0.5000000   0.8660254   0.2102860), wk =   0.0012346
        k(  861) = (   0.5000000   0.9301754   0.0000000), wk =   0.0012346
        k(  862) = (   0.5000000   0.9301754   0.0525715), wk =   0.0012346
        k(  863) = (   0.5000000   0.9301754   0.1051430), wk =   0.0012346
        k(  864) = (   0.5000000   0.9301754   0.1577145), wk =   0.0012346
        k(  865) = (   0.5000000   0.9301754   0.2102860), wk =   0.0012346
        k(  866) = (   0.5000000   0.9943255   0.0000000), wk =   0.0012346
        k(  867) = (   0.5000000   0.9943255   0.0525715), wk =   0.0012346
        k(  868) = (   0.5000000   0.9943255   0.1051430), wk =   0.0012346
        k(  869) = (   0.5000000   0.9943255   0.1577145), wk =   0.0012346
        k(  870) = (   0.5000000   0.9943255   0.2102860), wk =   0.0012346
        k(  871) = (   0.5000000   1.0584755   0.0000000), wk =   0.0012346
        k(  872) = (   0.5000000   1.0584755   0.0525715), wk =   0.0012346
        k(  873) = (   0.5000000   1.0584755   0.1051430), wk =   0.0012346
        k(  874) = (   0.5000000   1.0584755   0.1577145), wk =   0.0012346
        k(  875) = (   0.5000000   1.0584755   0.2102860), wk =   0.0012346
        k(  876) = (   0.5000000   1.1226255   0.0000000), wk =   0.0012346
        k(  877) = (   0.5000000   1.1226255   0.0525715), wk =   0.0012346
        k(  878) = (   0.5000000   1.1226255   0.1051430), wk =   0.0012346
        k(  879) = (   0.5000000   1.1226255   0.1577145), wk =   0.0012346
        k(  880) = (   0.5000000   1.1226255   0.2102860), wk =   0.0012346
        k(  881) = (   0.5000000   1.1867756   0.0000000), wk =   0.0012346
        k(  882) = (   0.5000000   1.1867756   0.0525715), wk =   0.0012346
        k(  883) = (   0.5000000   1.1867756   0.1051430), wk =   0.0012346
        k(  884) = (   0.5000000   1.1867756   0.1577145), wk =   0.0012346
        k(  885) = (   0.5000000   1.1867756   0.2102860), wk =   0.0012346
        k(  886) = (   0.5000000   1.2509256   0.0000000), wk =   0.0012346
        k(  887) = (   0.5000000   1.2509256   0.0525715), wk =   0.0012346
        k(  888) = (   0.5000000   1.2509256   0.1051430), wk =   0.0012346
        k(  889) = (   0.5000000   1.2509256   0.1577145), wk =   0.0012346
        k(  890) = (   0.5000000   1.2509256   0.2102860), wk =   0.0012346
        k(  891) = (   0.5000000   1.3150756   0.0000000), wk =   0.0012346
        k(  892) = (   0.5000000   1.3150756   0.0525715), wk =   0.0012346
        k(  893) = (   0.5000000   1.3150756   0.1051430), wk =   0.0012346
        k(  894) = (   0.5000000   1.3150756   0.1577145), wk =   0.0012346
        k(  895) = (   0.5000000   1.3150756   0.2102860), wk =   0.0012346
        k(  896) = (   0.5000000   1.3792256   0.0000000), wk =   0.0012346
        k(  897) = (   0.5000000   1.3792256   0.0525715), wk =   0.0012346
        k(  898) = (   0.5000000   1.3792256   0.1051430), wk =   0.0012346
        k(  899) = (   0.5000000   1.3792256   0.1577145), wk =   0.0012346
        k(  900) = (   0.5000000   1.3792256   0.2102860), wk =   0.0012346
        k(  901) = (   0.5555556   0.3207502   0.0000000), wk =   0.0012346
        k(  902) = (   0.5555556   0.3207502   0.0525715), wk =   0.0012346
        k(  903) = (   0.5555556   0.3207502   0.1051430), wk =   0.0012346
        k(  904) = (   0.5555556   0.3207502   0.1577145), wk =   0.0012346
        k(  905) = (   0.5555556   0.3207502   0.2102860), wk =   0.0012346
        k(  906) = (   0.5555556   0.3849002   0.0000000), wk =   0.0012346
        k(  907) = (   0.5555556   0.3849002   0.0525715), wk =   0.0012346
        k(  908) = (   0.5555556   0.3849002   0.1051430), wk =   0.0012346
        k(  909) = (   0.5555556   0.3849002   0.1577145), wk =   0.0012346
        k(  910) = (   0.5555556   0.3849002   0.2102860), wk =   0.0012346
        k(  911) = (   0.5555556   0.4490502   0.0000000), wk =   0.0012346
        k(  912) = (   0.5555556   0.4490502   0.0525715), wk =   0.0012346
        k(  913) = (   0.5555556   0.4490502   0.1051430), wk =   0.0012346
        k(  914) = (   0.5555556   0.4490502   0.1577145), wk =   0.0012346
        k(  915) = (   0.5555556   0.4490502   0.2102860), wk =   0.0012346
        k(  916) = (   0.5555556   0.5132002   0.0000000), wk =   0.0012346
        k(  917) = (   0.5555556   0.5132002   0.0525715), wk =   0.0012346
        k(  918) = (   0.5555556   0.5132002   0.1051430), wk =   0.0012346
        k(  919) = (   0.5555556   0.5132002   0.1577145), wk =   0.0012346
        k(  920) = (   0.5555556   0.5132002   0.2102860), wk =   0.0012346
        k(  921) = (   0.5555556   0.5773503   0.0000000), wk =   0.0012346
        k(  922) = (   0.5555556   0.5773503   0.0525715), wk =   0.0012346
        k(  923) = (   0.5555556   0.5773503   0.1051430), wk =   0.0012346
        k(  924) = (   0.5555556   0.5773503   0.1577145), wk =   0.0012346
        k(  925) = (   0.5555556   0.5773503   0.2102860), wk =   0.0012346
        k(  926) = (   0.5555556   0.6415003   0.0000000), wk =   0.0012346
        k(  927) = (   0.5555556   0.6415003   0.0525715), wk =   0.0012346
        k(  928) = (   0.5555556   0.6415003   0.1051430), wk =   0.0012346
        k(  929) = (   0.5555556   0.6415003   0.1577145), wk =   0.0012346
        k(  930) = (   0.5555556   0.6415003   0.2102860), wk =   0.0012346
        k(  931) = (   0.5555556   0.7056503   0.0000000), wk =   0.0012346
        k(  932) = (   0.5555556   0.7056503   0.0525715), wk =   0.0012346
        k(  933) = (   0.5555556   0.7056503   0.1051430), wk =   0.0012346
        k(  934) = (   0.5555556   0.7056503   0.1577145), wk =   0.0012346
        k(  935) = (   0.5555556   0.7056503   0.2102860), wk =   0.0012346
        k(  936) = (   0.5555556   0.7698004   0.0000000), wk =   0.0012346
        k(  937) = (   0.5555556   0.7698004   0.0525715), wk =   0.0012346
        k(  938) = (   0.5555556   0.7698004   0.1051430), wk =   0.0012346
        k(  939) = (   0.5555556   0.7698004   0.1577145), wk =   0.0012346
        k(  940) = (   0.5555556   0.7698004   0.2102860), wk =   0.0012346
        k(  941) = (   0.5555556   0.8339504   0.0000000), wk =   0.0012346
        k(  942) = (   0.5555556   0.8339504   0.0525715), wk =   0.0012346
        k(  943) = (   0.5555556   0.8339504   0.1051430), wk =   0.0012346
        k(  944) = (   0.5555556   0.8339504   0.1577145), wk =   0.0012346
        k(  945) = (   0.5555556   0.8339504   0.2102860), wk =   0.0012346
        k(  946) = (   0.5555556   0.8981004   0.0000000), wk =   0.0012346
        k(  947) = (   0.5555556   0.8981004   0.0525715), wk =   0.0012346
        k(  948) = (   0.5555556   0.8981004   0.1051430), wk =   0.0012346
        k(  949) = (   0.5555556   0.8981004   0.1577145), wk =   0.0012346
        k(  950) = (   0.5555556   0.8981004   0.2102860), wk =   0.0012346
        k(  951) = (   0.5555556   0.9622505   0.0000000), wk =   0.0012346
        k(  952) = (   0.5555556   0.9622505   0.0525715), wk =   0.0012346
        k(  953) = (   0.5555556   0.9622505   0.1051430), wk =   0.0012346
        k(  954) = (   0.5555556   0.9622505   0.1577145), wk =   0.0012346
        k(  955) = (   0.5555556   0.9622505   0.2102860), wk =   0.0012346
        k(  956) = (   0.5555556   1.0264005   0.0000000), wk =   0.0012346
        k(  957) = (   0.5555556   1.0264005   0.0525715), wk =   0.0012346
        k(  958) = (   0.5555556   1.0264005   0.1051430), wk =   0.0012346
        k(  959) = (   0.5555556   1.0264005   0.1577145), wk =   0.0012346
        k(  960) = (   0.5555556   1.0264005   0.2102860), wk =   0.0012346
        k(  961) = (   0.5555556   1.0905505   0.0000000), wk =   0.0012346
        k(  962) = (   0.5555556   1.0905505   0.0525715), wk =   0.0012346
        k(  963) = (   0.5555556   1.0905505   0.1051430), wk =   0.0012346
        k(  964) = (   0.5555556   1.0905505   0.1577145), wk =   0.0012346
        k(  965) = (   0.5555556   1.0905505   0.2102860), wk =   0.0012346
        k(  966) = (   0.5555556   1.1547005   0.0000000), wk =   0.0012346
        k(  967) = (   0.5555556   1.1547005   0.0525715), wk =   0.0012346
        k(  968) = (   0.5555556   1.1547005   0.1051430), wk =   0.0012346
        k(  969) = (   0.5555556   1.1547005   0.1577145), wk =   0.0012346
[...]
     0.0000   0.0000   0.0000   0.0000   0.0000   0.0000   0.0000   0.0000
     0.0000   0.0000   0.0000   0.0000   0.0000   0.0000   0.0000   0.0000
     0.0000   0.0000   0.0000   0.0000

          k = 0.9444 1.4434 0.2103 (  6876 PWs)   bands (ev):

   -49.8779 -49.8779 -24.0219 -24.0219 -24.0094 -24.0093 -23.8627 -23.8627
    -2.5425  -2.2707  -1.7716  -1.4089   5.4156   6.1448   6.8583   6.9740
     7.3905   7.5783   8.2665   8.3815   9.1622   9.2277   9.4902   9.9265
    10.1554  10.2232  12.7942  13.2641  13.3719  13.5641  13.8982  14.2708
    14.7566  15.0668  19.1359  19.4208  20.0075  20.1538  20.5779  20.7640
    21.6532  21.9262  22.5273  22.7808  23.3188  23.5438  23.8512  23.9847
    24.5482  24.7596  25.0435  25.5605

     occupation numbers 
     1.0000   1.0000   1.0000   1.0000   1.0000   1.0000   1.0000   1.0000
     1.0000   1.0000   1.0000   1.0000   1.0000   1.0000   1.0000   1.0000
     1.0000   1.0000   1.0000   1.0000   1.0000   1.0000   1.0000   1.0000
     1.0000   1.0000   0.0000   0.0000   0.0000   0.0000   0.0000   0.0000
     0.0000   0.0000   0.0000   0.0000   0.0000   0.0000   0.0000   0.0000
     0.0000   0.0000   0.0000   0.0000   0.0000   0.0000   0.0000   0.0000
     0.0000   0.0000   0.0000   0.0000

          k = 0.9444 1.5075 0.0000 (  6858 PWs)   bands (ev):

   -49.8852 -49.8852 -24.0237 -24.0236 -23.9535 -23.9535 -23.8454 -23.8454
    -2.8855  -2.5095  -2.0093  -1.4788   5.1501   6.3556   7.1402   7.3132
     7.4436   8.1107   8.5742   8.6869   8.9189   8.9774   9.6362  10.3166
    10.4133  10.5353  12.8873  13.3567  13.4818  13.6067  13.7847  13.9595
    14.5022  14.7617  19.2274  19.5257  20.3642  20.4399  20.7641  20.9769
    21.4909  21.9507  22.3524  22.7320  22.8194  23.3346  23.5007  23.9249
    24.4507  24.5726  24.7664  25.6770

     occupation numbers 
     1.0000   1.0000   1.0000   1.0000   1.0000   1.0000   1.0000   1.0000
     1.0000   1.0000   1.0000   1.0000   1.0000   1.0000   1.0000   1.0000
     1.0000   1.0000   1.0000   1.0000   1.0000   1.0000   1.0000   1.0000
     1.0000   1.0000   0.0000   0.0000   0.0000   0.0000   0.0000   0.0000
     0.0000   0.0000   0.0000   0.0000   0.0000   0.0000   0.0000   0.0000
     0.0000   0.0000   0.0000   0.0000   0.0000   0.0000   0.0000   0.0000
     0.0000   0.0000   0.0000   0.0000

          k = 0.9444 1.5075 0.0526 (  6850 PWs)   bands (ev):

   -49.8852 -49.8852 -24.0237 -24.0236 -23.9535 -23.9535 -23.8454 -23.8454
    -2.8618  -2.5717  -1.9331  -1.5180   5.2260   6.1375   7.2467   7.3392
     7.5174   8.0895   8.5790   8.6709   8.9269   8.9735   9.6577  10.1478
    10.4972  10.5404  12.9498  13.3765  13.4163  13.6038  13.8014  13.9484
    14.5316  14.7401  19.2461  19.4955  20.2461  20.4562  20.7385  21.2248
    21.5314  21.8935  22.2602  22.7680  22.8454  23.4282  23.4497  23.8218
    24.1857  24.4627  25.0789  25.5384

     occupation numbers 
     1.0000   1.0000   1.0000   1.0000   1.0000   1.0000   1.0000   1.0000
     1.0000   1.0000   1.0000   1.0000   1.0000   1.0000   1.0000   1.0000
     1.0000   1.0000   1.0000   1.0000   1.0000   1.0000   1.0000   1.0000
     1.0000   1.0000   0.0000   0.0000   0.0000   0.0000   0.0000   0.0000
     0.0000   0.0000   0.0000   0.0000   0.0000   0.0000   0.0000   0.0000
     0.0000   0.0000   0.0000   0.0000   0.0000   0.0000   0.0000   0.0000
     0.0000   0.0000   0.0000   0.0000

          k = 0.9444 1.5075 0.1051 (  6859 PWs)   bands (ev):

   -49.8852 -49.8852 -24.0237 -24.0236 -23.9535 -23.9535 -23.8454 -23.8454
    -2.7932  -2.6886  -1.7788  -1.6264   5.4427   5.7678   7.3017   7.3349
     7.7857   7.9977   8.5971   8.6327   8.9445   8.9620   9.7407   9.9142
    10.5433  10.5490  13.0976  13.2635  13.4562  13.5431  13.8551  13.9119
    14.6025  14.6812  19.3104  19.4109  20.2000  20.2677  21.0563  21.3174
    21.6215  21.7462  22.3091  22.5827  23.1093  23.3209  23.4358  23.6424
    24.0652  24.3189  25.2837  25.5171

     occupation numbers 
     1.0000   1.0000   1.0000   1.0000   1.0000   1.0000   1.0000   1.0000
     1.0000   1.0000   1.0000   1.0000   1.0000   1.0000   1.0000   1.0000
     1.0000   1.0000   1.0000   1.0000   1.0000   1.0000   1.0000   1.0000
     1.0000   1.0000   0.0000   0.0000   0.0000   0.0000   0.0000   0.0000
     0.0000   0.0000   0.0000   0.0000   0.0000   0.0000   0.0000   0.0000
     0.0000   0.0000   0.0000   0.0000   0.0000   0.0000   0.0000   0.0000
     0.0000   0.0000   0.0000   0.0000

          k = 0.9444 1.5075 0.1577 (  6859 PWs)   bands (ev):

   -49.8852 -49.8852 -24.0237 -24.0236 -23.9535 -23.9535 -23.8454 -23.8454
    -2.7932  -2.6886  -1.7788  -1.6264   5.4427   5.7678   7.3017   7.3349
     7.7857   7.9977   8.5971   8.6327   8.9445   8.9620   9.7407   9.9142
    10.5433  10.5490  13.0976  13.2635  13.4562  13.5431  13.8551  13.9119
    14.6025  14.6812  19.3104  19.4109  20.2000  20.2677  21.0563  21.3174
    21.6215  21.7462  22.3091  22.5827  23.1093  23.3209  23.4358  23.6424
    24.0652  24.3189  25.2837  25.5171

     occupation numbers 
     1.0000   1.0000   1.0000   1.0000   1.0000   1.0000   1.0000   1.0000
     1.0000   1.0000   1.0000   1.0000   1.0000   1.0000   1.0000   1.0000
     1.0000   1.0000   1.0000   1.0000   1.0000   1.0000   1.0000   1.0000
     1.0000   1.0000   0.0000   0.0000   0.0000   0.0000   0.0000   0.0000
     0.0000   0.0000   0.0000   0.0000   0.0000   0.0000   0.0000   0.0000
     0.0000   0.0000   0.0000   0.0000   0.0000   0.0000   0.0000   0.0000
     0.0000   0.0000   0.0000   0.0000

          k = 0.9444 1.5075 0.2103 (  6850 PWs)   bands (ev):

   -49.8852 -49.8852 -24.0237 -24.0236 -23.9535 -23.9535 -23.8454 -23.8454
    -2.8618  -2.5717  -1.9331  -1.5180   5.2260   6.1375   7.2467   7.3392
     7.5174   8.0895   8.5790   8.6709   8.9269   8.9735   9.6577  10.1478
    10.4972  10.5404  12.9498  13.3765  13.4163  13.6038  13.8014  13.9484
    14.5316  14.7401  19.2461  19.4955  20.2461  20.4562  20.7385  21.2248
    21.5314  21.8935  22.2602  22.7680  22.8454  23.4282  23.4497  23.8218
    24.1857  24.4627  25.0789  25.5384

     occupation numbers 
     1.0000   1.0000   1.0000   1.0000   1.0000   1.0000   1.0000   1.0000
     1.0000   1.0000   1.0000   1.0000   1.0000   1.0000   1.0000   1.0000
     1.0000   1.0000   1.0000   1.0000   1.0000   1.0000   1.0000   1.0000
     1.0000   1.0000   0.0000   0.0000   0.0000   0.0000   0.0000   0.0000
     0.0000   0.0000   0.0000   0.0000   0.0000   0.0000   0.0000   0.0000
     0.0000   0.0000   0.0000   0.0000   0.0000   0.0000   0.0000   0.0000
     0.0000   0.0000   0.0000   0.0000

          k = 0.9444 1.5717 0.0000 (  6822 PWs)   bands (ev):

   -49.8915 -49.8915 -24.0362 -24.0361 -23.8928 -23.8928 -23.8301 -23.8301
    -3.1476  -2.7610  -2.1430  -1.5659   4.9059   6.1884   7.4314   7.7142
     7.7613   8.6167   8.6920   8.7286   8.9147   9.0158   9.6932  10.3920
    10.6730  10.9930  13.2319  13.4793  13.5555  13.7402  13.7705  13.8069
    14.2466  14.3982  18.6997  18.8631  20.3146  20.6202  21.2704  21.4404
    21.6275  21.9516  22.2554  22.3575  22.7087  22.8494  23.0603  23.6421
    24.4307  24.5227  25.4689  25.8790

     occupation numbers 
     1.0000   1.0000   1.0000   1.0000   1.0000   1.0000   1.0000   1.0000
     1.0000   1.0000   1.0000   1.0000   1.0000   1.0000   1.0000   1.0000
     1.0000   1.0000   1.0000   1.0000   1.0000   1.0000   1.0000   1.0000
     1.0000   1.0000   0.0000   0.0000   0.0000   0.0000   0.0000   0.0000
     0.0000   0.0000   0.0000   0.0000   0.0000   0.0000   0.0000   0.0000
     0.0000   0.0000   0.0000   0.0000   0.0000   0.0000   0.0000   0.0000
     0.0000   0.0000   0.0000   0.0000

          k = 0.9444 1.5717 0.0526 (  6835 PWs)   bands (ev):

   -49.8915 -49.8915 -24.0362 -24.0361 -23.8928 -23.8928 -23.8301 -23.8301
    -3.1226  -2.8221  -2.0649  -1.6102   4.9906   5.9768   7.6228   7.7323
     7.7728   8.5720   8.6939   8.7229   8.9240   9.0048   9.7097  10.2062
    10.7902  10.9879  13.2658  13.4653  13.5765  13.7372  13.7645  13.7826
    14.2674  14.3875  18.7183  18.8503  20.3458  20.6962  21.1152  21.3731
    21.6341  22.0291  22.1356  22.4372  22.6818  22.9958  23.1616  23.5967
    24.1736  24.5283  25.4910  25.7948

     occupation numbers 
     1.0000   1.0000   1.0000   1.0000   1.0000   1.0000   1.0000   1.0000
     1.0000   1.0000   1.0000   1.0000   1.0000   1.0000   1.0000   1.0000
     1.0000   1.0000   1.0000   1.0000   1.0000   1.0000   1.0000   1.0000
     1.0000   1.0000   0.0000   0.0000   0.0000   0.0000   0.0000   0.0000
     0.0000   0.0000   0.0000   0.0000   0.0000   0.0000   0.0000   0.0000
     0.0000   0.0000   0.0000   0.0000   0.0000   0.0000   0.0000   0.0000
     0.0000   0.0000   0.0000   0.0000

          k = 0.9444 1.5717 0.1051 (  6849 PWs)   bands (ev):

   -49.8915 -49.8915 -24.0362 -24.0361 -23.8928 -23.8928 -23.8301 -23.8301
    -3.0505  -2.9413  -1.8998  -1.7319   5.2310   5.5867   7.7117   7.7323
     8.0841   8.4054   8.7000   8.7107   8.9477   8.9779   9.7794   9.9468
    10.9067  10.9654  13.3435  13.4195  13.6313  13.6993  13.7529  13.7595
    14.3125  14.3569  18.7639  18.8142  20.4770  20.7059  20.9881  21.1912
    21.7312  21.9061  22.2681  22.4331  22.7526  22.8523  23.5297  23.7485
    23.8446  24.2449  25.5008  25.6859

     occupation numbers 
     1.0000   1.0000   1.0000   1.0000   1.0000   1.0000   1.0000   1.0000
     1.0000   1.0000   1.0000   1.0000   1.0000   1.0000   1.0000   1.0000
     1.0000   1.0000   1.0000   1.0000   1.0000   1.0000   1.0000   1.0000
     1.0000   1.0000   0.0000   0.0000   0.0000   0.0000   0.0000   0.0000
     0.0000   0.0000   0.0000   0.0000   0.0000   0.0000   0.0000   0.0000
     0.0000   0.0000   0.0000   0.0000   0.0000   0.0000   0.0000   0.0000
     0.0000   0.0000   0.0000   0.0000

          k = 0.9444 1.5717 0.1577 (  6849 PWs)   bands (ev):

   -49.8915 -49.8915 -24.0362 -24.0361 -23.8928 -23.8928 -23.8301 -23.8301
    -3.0505  -2.9413  -1.8998  -1.7319   5.2310   5.5867   7.7117   7.7323
     8.0841   8.4054   8.7000   8.7107   8.9477   8.9779   9.7794   9.9468
    10.9067  10.9654  13.3435  13.4195  13.6313  13.6993  13.7529  13.7595
    14.3125  14.3569  18.7639  18.8142  20.4770  20.7059  20.9881  21.1912
    21.7312  21.9061  22.2681  22.4331  22.7526  22.8523  23.5297  23.7485
    23.8446  24.2449  25.5008  25.6859

     occupation numbers 
     1.0000   1.0000   1.0000   1.0000   1.0000   1.0000   1.0000   1.0000
     1.0000   1.0000   1.0000   1.0000   1.0000   1.0000   1.0000   1.0000
     1.0000   1.0000   1.0000   1.0000   1.0000   1.0000   1.0000   1.0000
     1.0000   1.0000   0.0000   0.0000   0.0000   0.0000   0.0000   0.0000
     0.0000   0.0000   0.0000   0.0000   0.0000   0.0000   0.0000   0.0000
     0.0000   0.0000   0.0000   0.0000   0.0000   0.0000   0.0000   0.0000
     0.0000   0.0000   0.0000   0.0000

          k = 0.9444 1.5717 0.2103 (  6835 PWs)   bands (ev):

   -49.8915 -49.8915 -24.0362 -24.0361 -23.8928 -23.8928 -23.8301 -23.8301
    -3.1226  -2.8221  -2.0649  -1.6102   4.9906   5.9768   7.6228   7.7323
     7.7728   8.5720   8.6939   8.7229   8.9240   9.0048   9.7097  10.2062
    10.7902  10.9879  13.2658  13.4653  13.5765  13.7372  13.7645  13.7826
    14.2674  14.3875  18.7183  18.8503  20.3458  20.6962  21.1152  21.3731
    21.6341  22.0291  22.1356  22.4372  22.6818  22.9958  23.1616  23.5967
    24.1736  24.5283  25.4910  25.7948

     occupation numbers 
     1.0000   1.0000   1.0000   1.0000   1.0000   1.0000   1.0000   1.0000
     1.0000   1.0000   1.0000   1.0000   1.0000   1.0000   1.0000   1.0000
     1.0000   1.0000   1.0000   1.0000   1.0000   1.0000   1.0000   1.0000
     1.0000   1.0000   0.0000   0.0000   0.0000   0.0000   0.0000   0.0000
     0.0000   0.0000   0.0000   0.0000   0.0000   0.0000   0.0000   0.0000
     0.0000   0.0000   0.0000   0.0000   0.0000   0.0000   0.0000   0.0000
     0.0000   0.0000   0.0000   0.0000

          k = 0.9444 1.6358 0.0000 (  6816 PWs)   bands (ev):

   -49.8963 -49.8963 -24.0455 -24.0453 -23.8473 -23.8473 -23.8188 -23.8188
    -3.3322  -2.9403  -2.2371  -1.6284   4.7079   6.0081   7.6777   8.0584
     8.0856   8.5174   8.5419   9.0305   9.2233   9.3090   9.6450  10.3968
    10.7644  11.3737  13.6037  13.6112  13.6961  13.7688  13.7977  13.9730
    14.0058  14.0808  18.0414  18.1704  20.2008  20.5149  20.9761  21.5836
    21.7167  21.9812  22.4643  22.5636  22.6588  22.8590  23.0071  23.5212
    24.2654  24.7085  26.0428  26.0459

     occupation numbers 
     1.0000   1.0000   1.0000   1.0000   1.0000   1.0000   1.0000   1.0000
     1.0000   1.0000   1.0000   1.0000   1.0000   1.0000   1.0000   1.0000
     1.0000   1.0000   1.0000   1.0000   1.0000   1.0000   1.0000   1.0000
     1.0000   0.9995   0.0000   0.0000   0.0000   0.0000   0.0000   0.0000
     0.0000   0.0000   0.0000   0.0000   0.0000   0.0000   0.0000   0.0000
     0.0000   0.0000   0.0000   0.0000   0.0000   0.0000   0.0000   0.0000
     0.0000   0.0000   0.0000   0.0000

          k = 0.9444 1.6358 0.0526 (  6816 PWs)   bands (ev):

   -49.8963 -49.8963 -24.0455 -24.0453 -23.8473 -23.8473 -23.8188 -23.8188
    -3.3064  -3.0004  -2.1576  -1.6764   4.7977   5.8098   7.8988   8.0657
     8.0824   8.5193   8.5392   8.9786   9.2312   9.3002   9.6536  10.1511
    10.9531  11.3548  13.6059  13.6142  13.7100  13.7783  13.7953  13.9242
    14.0368  14.0795  18.0560  18.1601  20.2617  20.6015  20.8862  21.5651
    21.6373  22.0186  22.3376  22.4863  22.5384  22.9648  23.3188  23.5259
    24.1094  24.6372  25.9145  26.1790

     occupation numbers 
     1.0000   1.0000   1.0000   1.0000   1.0000   1.0000   1.0000   1.0000
     1.0000   1.0000   1.0000   1.0000   1.0000   1.0000   1.0000   1.0000
     1.0000   1.0000   1.0000   1.0000   1.0000   1.0000   1.0000   1.0000
     1.0000   0.9996   0.0000   0.0000   0.0000   0.0000   0.0000   0.0000
     0.0000   0.0000   0.0000   0.0000   0.0000   0.0000   0.0000   0.0000
     0.0000   0.0000   0.0000   0.0000   0.0000   0.0000   0.0000   0.0000
     0.0000   0.0000   0.0000   0.0000

          k = 0.9444 1.6358 0.1051 (  6832 PWs)   bands (ev):

   -49.8963 -49.8963 -24.0454 -24.0454 -23.8473 -23.8473 -23.8188 -23.8188
    -3.2322  -3.1206  -1.9856  -1.8072   5.0508   5.4195   8.0616   8.0738
     8.3649   8.5246   8.5329   8.7697   9.2517   9.2778   9.6993   9.8496
    11.1618  11.2906  13.6110  13.6154  13.7491  13.7832  13.8048  13.8559
    14.0621  14.0745  18.0918  18.1314  20.4339  20.6710  20.8465  21.2049
    21.7921  22.0257  22.1572  22.3331  22.6962  22.8862  23.5554  23.8127
    23.9064  24.3554  25.9711  26.2339

     occupation numbers 
     1.0000   1.0000   1.0000   1.0000   1.0000   1.0000   1.0000   1.0000
     1.0000   1.0000   1.0000   1.0000   1.0000   1.0000   1.0000   1.0000
     1.0000   1.0000   1.0000   1.0000   1.0000   1.0000   1.0000   1.0000
     1.0000   0.9999   0.0000   0.0000   0.0000   0.0000   0.0000   0.0000
     0.0000   0.0000   0.0000   0.0000   0.0000   0.0000   0.0000   0.0000
     0.0000   0.0000   0.0000   0.0000   0.0000   0.0000   0.0000   0.0000
     0.0000   0.0000   0.0000   0.0000

          k = 0.9444 1.6358 0.1577 (  6832 PWs)   bands (ev):

   -49.8963 -49.8963 -24.0454 -24.0454 -23.8473 -23.8473 -23.8188 -23.8188
    -3.2322  -3.1206  -1.9856  -1.8072   5.0508   5.4195   8.0616   8.0738
     8.3649   8.5246   8.5329   8.7697   9.2517   9.2778   9.6993   9.8496
    11.1618  11.2906  13.6110  13.6154  13.7491  13.7832  13.8048  13.8559
    14.0621  14.0745  18.0918  18.1314  20.4339  20.6710  20.8465  21.2049
    21.7921  22.0257  22.1572  22.3331  22.6962  22.8862  23.5554  23.8127
    23.9064  24.3554  25.9711  26.2339

     occupation numbers 
     1.0000   1.0000   1.0000   1.0000   1.0000   1.0000   1.0000   1.0000
     1.0000   1.0000   1.0000   1.0000   1.0000   1.0000   1.0000   1.0000
     1.0000   1.0000   1.0000   1.0000   1.0000   1.0000   1.0000   1.0000
     1.0000   0.9999   0.0000   0.0000   0.0000   0.0000   0.0000   0.0000
     0.0000   0.0000   0.0000   0.0000   0.0000   0.0000   0.0000   0.0000
     0.0000   0.0000   0.0000   0.0000   0.0000   0.0000   0.0000   0.0000
     0.0000   0.0000   0.0000   0.0000

          k = 0.9444 1.6358 0.2103 (  6816 PWs)   bands (ev):

   -49.8963 -49.8963 -24.0455 -24.0453 -23.8473 -23.8473 -23.8188 -23.8188
    -3.3064  -3.0004  -2.1576  -1.6764   4.7977   5.8098   7.8988   8.0657
     8.0824   8.5193   8.5392   8.9786   9.2312   9.3002   9.6536  10.1511
    10.9531  11.3548  13.6059  13.6142  13.7100  13.7783  13.7953  13.9242
    14.0368  14.0795  18.0560  18.1601  20.2617  20.6015  20.8862  21.5651
    21.6373  22.0186  22.3376  22.4863  22.5384  22.9648  23.3188  23.5259
    24.1094  24.6372  25.9145  26.1790

     occupation numbers 
     1.0000   1.0000   1.0000   1.0000   1.0000   1.0000   1.0000   1.0000
     1.0000   1.0000   1.0000   1.0000   1.0000   1.0000   1.0000   1.0000
     1.0000   1.0000   1.0000   1.0000   1.0000   1.0000   1.0000   1.0000
     1.0000   0.9996   0.0000   0.0000   0.0000   0.0000   0.0000   0.0000
     0.0000   0.0000   0.0000   0.0000   0.0000   0.0000   0.0000   0.0000
     0.0000   0.0000   0.0000   0.0000   0.0000   0.0000   0.0000   0.0000
     0.0000   0.0000   0.0000   0.0000

     the Fermi energy is    12.0063 ev
     (compare with:    12.0063 eV, computed in scf)

     Writing all to output data dir ./MoS2.save/
 
     init_run     :      0.16s CPU      0.50s WALL (       1 calls)
     electrons    :   1391.21s CPU   1495.86s WALL (       1 calls)

     Called by init_run:
     wfcinit      :      0.00s CPU      0.01s WALL (       1 calls)
     wfcinit:wfcr :     12.64s CPU     13.31s WALL (    1620 calls)
     potinit      :      0.04s CPU      0.12s WALL (       1 calls)
     hinit0       :      0.05s CPU      0.28s WALL (       1 calls)

     Called by electrons:
     c_bands      :   1391.08s CPU   1495.68s WALL (       1 calls)
     v_of_rho     :      0.00s CPU      0.00s WALL (       1 calls)
     v_h          :      0.00s CPU      0.00s WALL (       1 calls)
     v_xc         :      0.00s CPU      0.00s WALL (       1 calls)
     newd         :      0.01s CPU      0.02s WALL (       1 calls)
     PAW_pot      :      0.04s CPU      0.05s WALL (       1 calls)

     Called by c_bands:
     init_us_2    :      0.13s CPU      0.14s WALL (    1620 calls)
     init_us_2:cp :      0.12s CPU      0.14s WALL (    1620 calls)
     ccgdiagg     :   1305.49s CPU   1397.01s WALL (    9395 calls)
     wfcrot       :     72.19s CPU     75.13s WALL (    9395 calls)

     Called by sum_band:

     Called by *cgdiagg:
     h_psi        :    868.46s CPU    927.60s WALL ( 5287509 calls)
     s_psi        :    102.84s CPU    111.18s WALL (10565623 calls)

     Called by h_psi:
     h_psi:calbec :    119.06s CPU    126.96s WALL ( 5287509 calls)
     vloc_psi     :    657.92s CPU    702.60s WALL ( 5287509 calls)
     add_vuspsi   :     55.73s CPU     60.15s WALL ( 5287509 calls)
     hs_1psi      :    897.01s CPU    959.54s WALL ( 5278114 calls)
     s_1psi       :    152.65s CPU    162.98s WALL ( 5278114 calls)

     General routines
     calbec       :    180.91s CPU    194.02s WALL (10565623 calls)
     fft          :      0.01s CPU      0.23s WALL (      13 calls)
     ffts         :      0.00s CPU      0.04s WALL (       1 calls)
     fftw         :    606.54s CPU    647.52s WALL (11533308 calls)
     interpolate  :      0.00s CPU      0.04s WALL (       1 calls)
     davcio       :      0.47s CPU     20.32s WALL (    3240 calls)
 
     Parallel routines

     PAW routines
     PAW_pot      :      0.04s CPU      0.05s WALL (       1 calls)
 
     PWSCF        :  24m56.10s CPU  28m13.47s WALL

 
   This run was terminated on:  11:48:27  30May2024            

=------------------------------------------------------------------------------=
   JOB DONE.
=------------------------------------------------------------------------------=
