
     Program PWSCF v.7.1 starts on 30May2024 at 11:18:59 

     This program is part of the open-source Quantum ESPRESSO suite
     for quantum simulation of materials; please cite
         "P. Giannozzi et al., J. Phys.:Condens. Matter 21 395502 (2009);
         "P. Giannozzi et al., J. Phys.:Condens. Matter 29 465901 (2017);
         "P. Giannozzi et al., J. Chem. Phys. 152 154105 (2020);
          URL http://www.quantum-espresso.org", 
     in publications or presentations arising from this work. More details at
     http://www.quantum-espresso.org/quote

     Parallel version (MPI), running on    32 processors

     MPI processes distributed on     1 nodes
     173053 MiB available memory on the printing compute node when the environment starts
 
     Waiting for input...
     Reading input from standard input
Warning: card / ignored

     Current dimensions of program PWSCF are:
     Max number of different atomic species (ntypx) = 10
     Max number of k-points (npk) =  40000
     Max angular momentum in pseudopotentials (lmaxx) =  4
     file Mo.pbe-spn-kjpaw_psl.0.2.UPF: wavefunction(s)  4D renormalized
     file S.pbe-n-kjpaw_psl.0.1.UPF: wavefunction(s)  3P renormalized
 
     R & G space division:  proc/nbgrp/npool/nimage =      32
     Subspace diagonalization in iterative solution of the eigenvalue problem:
     a serial algorithm will be used

 
     Parallelization info
     --------------------
     sticks:   dense  smooth     PW     G-vecs:    dense   smooth      PW
     Min          32      21      6                 3154     1713     270
     Max          33      22      7                 3171     1734     287
     Sum        1027     673    199               101073    54949    8795
 
     Using Slab Decomposition
 


     bravais-lattice index     =            4
     lattice parameter (alat)  =       5.9531  a.u.
     unit-cell volume          =     695.0783 (a.u.)^3
     number of atoms/cell      =            6
     number of atomic types    =            2
     number of electrons       =        52.00
     number of Kohn-Sham states=           31
     kinetic-energy cutoff     =      70.0000  Ry
     charge density cutoff     =     420.0000  Ry
     scf convergence threshold =      1.0E-12
     mixing beta               =       0.7000
     number of iterations used =            8  plain     mixing
     Exchange-correlation= SLA  PW   PBX  PBC
                           (   1   4   3   4   0   0   0)

     celldm(1)=   5.953073  celldm(2)=   0.000000  celldm(3)=   3.804342
     celldm(4)=   0.000000  celldm(5)=   0.000000  celldm(6)=   0.000000

     crystal axes: (cart. coord. in units of alat)
               a(1) = (   1.000000   0.000000   0.000000 )  
               a(2) = (  -0.500000   0.866025   0.000000 )  
               a(3) = (   0.000000   0.000000   3.804342 )  

     reciprocal axes: (cart. coord. in units 2 pi/alat)
               b(1) = (  1.000000  0.577350  0.000000 )  
               b(2) = (  0.000000  1.154701  0.000000 )  
               b(3) = (  0.000000  0.000000  0.262858 )  


     PseudoPot. # 1 for Mo read from file:
     ./Mo.pbe-spn-kjpaw_psl.0.2.UPF
     MD5 check sum: c350be6523f52beb1aa5af16b45f597d
     Pseudo is Projector augmented-wave + core cor, Zval = 14.0
     Generated using "atomic" code by A. Dal Corso  v.5.0.2 svn rev. 9415
     Shape of augmentation charge: PSQ
     Using radial grid of 1229 points,  6 beta functions with: 
                l(1) =   0
                l(2) =   0
                l(3) =   1
                l(4) =   1
                l(5) =   2
                l(6) =   2
     Q(r) pseudized with 0 coefficients 


     PseudoPot. # 2 for S  read from file:
     ./S.pbe-n-kjpaw_psl.0.1.UPF
     MD5 check sum: 1c303a2ed0d2bd98331ea607af2ec33b
     Pseudo is Projector augmented-wave + core cor, Zval =  6.0
     Generated using "atomic" code by A. Dal Corso  v.5.0.2 svn rev. 9415
     Shape of augmentation charge: PSQ
     Using radial grid of 1151 points,  4 beta functions with: 
                l(1) =   0
                l(2) =   0
                l(3) =   1
                l(4) =   1
     Q(r) pseudized with 0 coefficients 


     atomic species   valence    mass     pseudopotential
        Mo            14.00    95.95000     Mo( 1.00)
        S              6.00    32.06500     S ( 1.00)

     24 Sym. Ops., with inversion, found (12 have fractional translation)



   Cartesian axes

     site n.     atom                  positions (alat units)
         1           Mo  tau(   1) = (  -0.0000000   0.5773503   0.9510855  )
         2           Mo  tau(   2) = (   0.5000000   0.2886751   2.8532566  )
         3           S   tau(   3) = (   0.5000000   0.2886751   1.4495309  )
         4           S   tau(   4) = (  -0.0000000   0.5773503   3.3517020  )
         5           S   tau(   5) = (   0.5000000   0.2886751   0.4526401  )
         6           S   tau(   6) = (  -0.0000000   0.5773503   2.3548112  )

     number of k points=   111  Gaussian smearing, width (Ry)=  0.0200

     Number of k-points >= 100: set verbosity='high' to print them.

     Dense  grid:   101073 G-vectors     FFT dimensions: (  40,  40, 150)

     Smooth grid:    54949 G-vectors     FFT dimensions: (  32,  32, 128)

     Estimated max dynamical RAM per process >      25.95 MB

     Estimated total dynamical RAM >     830.25 MB

     Check: negative core charge=   -0.000001

     Initial potential from superposition of free atoms

     starting charge      51.9973, renormalised to      52.0000
     Starting wfcs are random
     Checking if some PAW data can be deallocated... 

     total cpu time spent up to now is        1.9 secs

     Self-consistent Calculation

     iteration #  1     ecut=    70.00 Ry     beta= 0.70
     CG style diagonalization
     ethr =  1.00E-02,  avg # of iterations = 10.2

     total cpu time spent up to now is       10.6 secs

     total energy              =    -992.71984087 Ry
     estimated scf accuracy    <       0.85362972 Ry

     iteration #  2     ecut=    70.00 Ry     beta= 0.70
     CG style diagonalization
     ethr =  1.64E-03,  avg # of iterations =  5.4

     total cpu time spent up to now is       15.1 secs

     total energy              =    -992.14183492 Ry
     estimated scf accuracy    <       7.85666191 Ry

     iteration #  3     ecut=    70.00 Ry     beta= 0.70
     CG style diagonalization
     ethr =  1.64E-03,  avg # of iterations =  4.4

     total cpu time spent up to now is       18.6 secs

     total energy              =    -993.32193505 Ry
     estimated scf accuracy    <       0.18496880 Ry

     iteration #  4     ecut=    70.00 Ry     beta= 0.70
     CG style diagonalization
     ethr =  3.56E-04,  avg # of iterations =  3.7

     total cpu time spent up to now is       21.7 secs

     total energy              =    -993.35809588 Ry
     estimated scf accuracy    <       0.02199339 Ry

     iteration #  5     ecut=    70.00 Ry     beta= 0.70
     CG style diagonalization
     c_bands:  1 eigenvalues not converged
     c_bands:  3 eigenvalues not converged
     c_bands:  1 eigenvalues not converged
     c_bands:  2 eigenvalues not converged
     c_bands:  2 eigenvalues not converged
     c_bands:  1 eigenvalues not converged
     c_bands:  1 eigenvalues not converged
     c_bands:  1 eigenvalues not converged
     c_bands:  1 eigenvalues not converged
     c_bands:  1 eigenvalues not converged
     c_bands:  1 eigenvalues not converged
     c_bands:  2 eigenvalues not converged
     c_bands:  1 eigenvalues not converged
     c_bands:  1 eigenvalues not converged
     c_bands:  1 eigenvalues not converged
     c_bands:  1 eigenvalues not converged
     c_bands:  1 eigenvalues not converged
     c_bands:  1 eigenvalues not converged
     c_bands:  1 eigenvalues not converged
     c_bands:  1 eigenvalues not converged
     c_bands:  1 eigenvalues not converged
     c_bands:  1 eigenvalues not converged
     c_bands:  2 eigenvalues not converged
     c_bands:  1 eigenvalues not converged
     c_bands:  1 eigenvalues not converged
     c_bands:  1 eigenvalues not converged
     c_bands:  2 eigenvalues not converged
     c_bands:  1 eigenvalues not converged
     ethr =  4.23E-05,  avg # of iterations =  4.8

     total cpu time spent up to now is       25.8 secs

     total energy              =    -993.36585532 Ry
     estimated scf accuracy    <       0.00047028 Ry

     iteration #  6     ecut=    70.00 Ry     beta= 0.70
     CG style diagonalization
     c_bands:  2 eigenvalues not converged
     c_bands:  3 eigenvalues not converged
     c_bands:  3 eigenvalues not converged
     c_bands:  3 eigenvalues not converged
     c_bands:  5 eigenvalues not converged
     c_bands:  5 eigenvalues not converged
     c_bands:  4 eigenvalues not converged
     c_bands:  4 eigenvalues not converged
     c_bands:  1 eigenvalues not converged
     c_bands:  1 eigenvalues not converged
     c_bands:  2 eigenvalues not converged
     c_bands:  1 eigenvalues not converged
     c_bands:  1 eigenvalues not converged
     c_bands:  1 eigenvalues not converged
     c_bands:  1 eigenvalues not converged
     c_bands:  1 eigenvalues not converged
     c_bands:  1 eigenvalues not converged
     c_bands:  1 eigenvalues not converged
     c_bands:  5 eigenvalues not converged
     c_bands:  4 eigenvalues not converged
     c_bands:  4 eigenvalues not converged
     c_bands:  1 eigenvalues not converged
     c_bands:  2 eigenvalues not converged
     c_bands:  2 eigenvalues not converged
     c_bands:  1 eigenvalues not converged
     c_bands:  2 eigenvalues not converged
     c_bands:  1 eigenvalues not converged
     c_bands:  1 eigenvalues not converged
     c_bands:  1 eigenvalues not converged
     c_bands:  1 eigenvalues not converged
     c_bands:  1 eigenvalues not converged
     c_bands:  1 eigenvalues not converged
     c_bands:  1 eigenvalues not converged
     c_bands:  1 eigenvalues not converged
     c_bands:  3 eigenvalues not converged
     c_bands:  1 eigenvalues not converged
     c_bands:  1 eigenvalues not converged
     c_bands:  1 eigenvalues not converged
     c_bands:  1 eigenvalues not converged
     c_bands:  1 eigenvalues not converged
     c_bands:  1 eigenvalues not converged
     c_bands:  1 eigenvalues not converged
     c_bands:  1 eigenvalues not converged
     c_bands:  1 eigenvalues not converged
     c_bands:  1 eigenvalues not converged
     c_bands:  1 eigenvalues not converged
     c_bands:  1 eigenvalues not converged
     c_bands:  1 eigenvalues not converged
     c_bands:  1 eigenvalues not converged
     c_bands:  1 eigenvalues not converged
     c_bands:  2 eigenvalues not converged
     c_bands:  3 eigenvalues not converged
     c_bands:  1 eigenvalues not converged
     c_bands:  2 eigenvalues not converged
     c_bands:  2 eigenvalues not converged
     c_bands:  1 eigenvalues not converged
     c_bands:  1 eigenvalues not converged
     c_bands:  2 eigenvalues not converged
     c_bands:  2 eigenvalues not converged
     c_bands:  2 eigenvalues not converged
     c_bands:  1 eigenvalues not converged
     c_bands:  1 eigenvalues not converged
     c_bands:  1 eigenvalues not converged
     ethr =  9.04E-07,  avg # of iterations =  7.7

     total cpu time spent up to now is       32.0 secs

     total energy              =    -993.36716193 Ry
     estimated scf accuracy    <       0.00012553 Ry

     iteration #  7     ecut=    70.00 Ry     beta= 0.70
     CG style diagonalization
     c_bands:  2 eigenvalues not converged
     c_bands:  1 eigenvalues not converged
     c_bands:  1 eigenvalues not converged
     c_bands:  1 eigenvalues not converged
     c_bands:  1 eigenvalues not converged
     c_bands:  1 eigenvalues not converged
     c_bands:  1 eigenvalues not converged
     c_bands:  1 eigenvalues not converged
     c_bands:  1 eigenvalues not converged
     c_bands:  1 eigenvalues not converged
     c_bands:  1 eigenvalues not converged
     c_bands:  1 eigenvalues not converged
     ethr =  2.41E-07,  avg # of iterations =  3.6

     total cpu time spent up to now is       34.9 secs

     total energy              =    -993.36713402 Ry
     estimated scf accuracy    <       0.00007905 Ry

     iteration #  8     ecut=    70.00 Ry     beta= 0.70
     CG style diagonalization
     c_bands:  1 eigenvalues not converged
     ethr =  1.52E-07,  avg # of iterations =  3.7

     total cpu time spent up to now is       38.0 secs

     total energy              =    -993.36714893 Ry
     estimated scf accuracy    <       0.00001390 Ry

     iteration #  9     ecut=    70.00 Ry     beta= 0.70
     CG style diagonalization
     ethr =  2.67E-08,  avg # of iterations =  3.8

     total cpu time spent up to now is       41.0 secs

     total energy              =    -993.36715323 Ry
     estimated scf accuracy    <       0.00000158 Ry

     iteration # 10     ecut=    70.00 Ry     beta= 0.70
     CG style diagonalization
     ethr =  3.05E-09,  avg # of iterations =  4.3

     total cpu time spent up to now is       44.6 secs

     total energy              =    -993.36715392 Ry
     estimated scf accuracy    <       0.00000011 Ry

     iteration # 11     ecut=    70.00 Ry     beta= 0.70
     CG style diagonalization
     ethr =  2.14E-10,  avg # of iterations =  4.7

     total cpu time spent up to now is       48.4 secs

     total energy              =    -993.36715401 Ry
     estimated scf accuracy    <       0.00000002 Ry

     iteration # 12     ecut=    70.00 Ry     beta= 0.70
     CG style diagonalization
     ethr =  3.69E-11,  avg # of iterations =  4.0

     total cpu time spent up to now is       51.7 secs

     total energy              =    -993.36715402 Ry
     estimated scf accuracy    <          2.4E-09 Ry

     iteration # 13     ecut=    70.00 Ry     beta= 0.70
     CG style diagonalization
     ethr =  4.58E-12,  avg # of iterations =  4.3

     total cpu time spent up to now is       55.3 secs

     total energy              =    -993.36715402 Ry
     estimated scf accuracy    <          5.3E-10 Ry

     iteration # 14     ecut=    70.00 Ry     beta= 0.70
     CG style diagonalization
     ethr =  1.01E-12,  avg # of iterations =  3.8

     total cpu time spent up to now is       58.5 secs

     total energy              =    -993.36715402 Ry
     estimated scf accuracy    <          4.3E-11 Ry

     iteration # 15     ecut=    70.00 Ry     beta= 0.70
     CG style diagonalization
     ethr =  1.00E-13,  avg # of iterations =  4.5

     total cpu time spent up to now is       62.2 secs

     total energy              =    -993.36715402 Ry
     estimated scf accuracy    <          2.9E-12 Ry

     iteration # 16     ecut=    70.00 Ry     beta= 0.70
     CG style diagonalization
     ethr =  1.00E-13,  avg # of iterations =  3.0

     total cpu time spent up to now is       64.7 secs

     End of self-consistent calculation

     Number of k-points >= 100: set verbosity='high' to print the bands.

     the Fermi energy is    12.0063 ev

!    total energy              =    -993.36715403 Ry
     total all-electron energy =    -19390.029926 Ry
     estimated scf accuracy    <          5.1E-13 Ry
     smearing contrib. (-TS)   =      -0.00003536 Ry
     internal energy E=F+TS    =    -993.36711867 Ry

     The total energy is F=E-TS. E is the sum of the following terms:
     one-electron contribution =    -144.77795847 Ry
     hartree contribution      =     100.56941370 Ry
     xc contribution           =     -85.28100458 Ry
     ewald contribution        =    -249.96876340 Ry
     one-center paw contrib.   =    -613.90880591 Ry

     convergence has been achieved in  16 iterations

     Writing all to output data dir ./MoS2.save/
 
     init_run     :      0.68s CPU      0.82s WALL (       1 calls)
     electrons    :     56.18s CPU     62.87s WALL (       1 calls)

     Called by init_run:
     wfcinit      :      0.52s CPU      0.57s WALL (       1 calls)
     potinit      :      0.06s CPU      0.08s WALL (       1 calls)
     hinit0       :      0.06s CPU      0.11s WALL (       1 calls)

     Called by electrons:
     c_bands      :     51.47s CPU     57.68s WALL (      16 calls)
     sum_band     :      3.84s CPU      4.12s WALL (      16 calls)
     v_of_rho     :      0.06s CPU      0.06s WALL (      17 calls)
     newd         :      0.17s CPU      0.28s WALL (      17 calls)
     PAW_pot      :      0.64s CPU      0.67s WALL (      17 calls)
     mix_rho      :      0.02s CPU      0.02s WALL (      16 calls)

     Called by c_bands:
     init_us_2    :      0.25s CPU      0.28s WALL (    3663 calls)
     init_us_2:cp :      0.25s CPU      0.27s WALL (    3663 calls)
     ccgdiagg     :     44.34s CPU     47.99s WALL (    1776 calls)
     wfcrot       :      7.23s CPU      7.67s WALL (    1776 calls)

     Called by *cgdiagg:
     h_psi        :     34.77s CPU     37.50s WALL (  210321 calls)
     s_psi        :      3.20s CPU      3.50s WALL (  418866 calls)

     Called by h_psi:
     h_psi:calbec :      4.30s CPU      4.63s WALL (  210321 calls)
     vloc_psi     :     27.28s CPU     29.42s WALL (  210321 calls)
     add_vuspsi   :      1.81s CPU      1.97s WALL (  210321 calls)
     hs_1psi      :     31.50s CPU     34.06s WALL (  208545 calls)
     s_1psi       :      5.30s CPU      5.73s WALL (  208545 calls)

     General routines
     calbec       :      6.72s CPU      7.29s WALL (  420642 calls)
     fft          :      0.05s CPU      0.08s WALL (     219 calls)
     ffts         :      0.00s CPU      0.01s WALL (      33 calls)
     fftw         :     27.81s CPU     29.87s WALL (  582258 calls)
     interpolate  :      0.01s CPU      0.01s WALL (      17 calls)
 
     Parallel routines
 
     PWSCF        :     57.60s CPU   1m 8.82s WALL

 
   This run was terminated on:  11:20: 8  30May2024            

=------------------------------------------------------------------------------=
   JOB DONE.
=------------------------------------------------------------------------------=
