 
             +---------------------------------------------------+
             |                                                   |
             |                   WANNIER90                       |
             |                                                   |
             +---------------------------------------------------+
             |                                                   |
             |        Welcome to the Maximally-Localized         |
             |        Generalized Wannier Functions code         |
             |            http://www.wannier.org                 |
             |                                                   |
             |                                                   |
             |  Wannier90 Developer Group:                       |
             |    Giovanni Pizzi    (EPFL)                       |
             |    Valerio Vitale    (Cambridge)                  |
             |    David Vanderbilt  (Rutgers University)         |
             |    Nicola Marzari    (EPFL)                       |
             |    Ivo Souza         (Universidad del Pais Vasco) |
             |    Arash A. Mostofi  (Imperial College London)    |
             |    Jonathan R. Yates (University of Oxford)       |
             |                                                   |
             |  For the full list of Wannier90 3.x authors,      |
             |  please check the code documentation and the      |
             |  README on the GitHub page of the code            |
             |                                                   |
             |                                                   |
             |  Please cite                                      |
             |                                                   |
             |  [ref] "Wannier90 as a community code:            |
             |        new features and applications",            |
             |        G. Pizzi et al., J. Phys. Cond. Matt. 32,  |
             |        165902 (2020).                             |
             |        http://doi.org/10.1088/1361-648X/ab51ff    |
             |                                                   |
             |  in any publications arising from the use of      |
             |  this code. For the method please cite            |
             |                                                   |
             |  [ref] "Maximally Localized Generalised Wannier   |
             |         Functions for Composite Energy Bands"     |
             |         N. Marzari and D. Vanderbilt              |
             |         Phys. Rev. B 56 12847 (1997)              |
             |                                                   |
             |  [ref] "Maximally Localized Wannier Functions     |
             |         for Entangled Energy Bands"               |
             |         I. Souza, N. Marzari and D. Vanderbilt    |
             |         Phys. Rev. B 65 035109 (2001)             |
             |                                                   |
             |                                                   |
             | Copyright (c) 1996-2020                           |
             |        The Wannier90 Developer Group and          |
             |        individual contributors                    |
             |                                                   |
             |      Release: 3.1.0        5th March    2020      |
             |                                                   |
             | This program is free software; you can            |
             | redistribute it and/or modify it under the terms  |
             | of the GNU General Public License as published by |
             | the Free Software Foundation; either version 2 of |
             | the License, or (at your option) any later version|
             |                                                   |
             | This program is distributed in the hope that it   |
             | will be useful, but WITHOUT ANY WARRANTY; without |
             | even the implied warranty of MERCHANTABILITY or   |
             | FITNESS FOR A PARTICULAR PURPOSE. See the GNU     |
             | General Public License for more details.          |
             |                                                   |
             | You should have received a copy of the GNU General|
             | Public License along with this program; if not,   |
             | write to the Free Software Foundation, Inc.,      |
             | 675 Mass Ave, Cambridge, MA 02139, USA.           |
             |                                                   |
             +---------------------------------------------------+
             |    Execution started on 18Mar2024 at 20:35:00     |
             +---------------------------------------------------+
 
 ******************************************************************************
 * -> Using CODATA 2006 constant values                                       *
 *    (http://physics.nist.gov/cuu/Constants/index.html)                      *
 * -> Using Bohr value from CODATA                                            *
 ******************************************************************************
 

 Running in parallel on  32 CPUs

 
                                    ------
                                    SYSTEM
                                    ------
 
                              Lattice Vectors (Ang)
                    a_1     2.451387   0.000000   0.000000
                    a_2    -1.225693   2.122963   0.000000
                    a_3     0.000000   0.000000   6.832412
 
                   Unit Cell Volume:      35.55727  (Ang^3)
 
                        Reciprocal-Space Vectors (Ang^-1)
                    b_1     2.563114   1.479815   0.000000
                    b_2     0.000000   2.959630   0.000000
                    b_3     0.000000   0.000000   0.919614
  
 *----------------------------------------------------------------------------*
 |   Site       Fractional Coordinate          Cartesian Coordinate (Ang)     |
 +----------------------------------------------------------------------------+
 | C    1   0.99999   0.99999   0.26459   |    1.22568   2.12294   1.80782    |
 | C    2   0.00001   0.00002   0.76461   |    0.00001   0.00003   5.22412    |
 | C    3   0.66666   0.33332   0.26460   |    1.22568   0.70763   1.80785    |
 | C    4   0.33333   0.66667   0.76461   |   -0.00002   1.41532   5.22416    |
 *----------------------------------------------------------------------------*
                                ------------
                                K-POINT GRID
                                ------------
  
             Grid size = 16 x 16 x  6      Total points = 1536
  
  
 *---------------------------------- MAIN ------------------------------------*
 |  Number of Wannier Functions               :                16             |
 |  Number of Objective Wannier Functions     :                16             |
 |  Number of input Bloch states              :                32             |
 |  Output verbosity (1=low, 5=high)          :                 1             |
 |  Timing Level (1=low, 5=high)              :                 1             |
 |  Optimisation (0=memory, 3=speed)          :                 3             |
 |  Length Unit                               :               Ang             |
 |  Post-processing setup (write *.nnkp)      :                 F             |
 |  Using Gamma-only branch of algorithms     :                 F             |
 *----------------------------------------------------------------------------*
 *------------------------------- WANNIERISE ---------------------------------*
 |  Total number of iterations                :              4850             |
 |  Number of CG steps before reset           :                 5             |
 |  Trial step length for line search         :             2.000             |
 |  Convergence tolerence                     :         0.100E-09             |
 |  Convergence window                        :                -1             |
 |  Iterations between writing output         :                50             |
 |  Iterations between backing up to disk     :               100             |
 |  Write r^2_nm to file                      :                 F             |
 |  Write xyz WF centres to file              :                 F             |
 |  Write on-site energies <0n|H|0n> to file  :                 F             |
 |  Use guiding centre to control phases      :                 T             |
 |  Use phases for initial projections        :                 F             |
 |  Iterations before starting guiding centres:                 0             |
 |  Iterations between using guiding centres  :                 1             |
 *----------------------------------------------------------------------------*
 *------------------------------- DISENTANGLE --------------------------------*
 |  Using band disentanglement                :                 T             |
 |  Total number of iterations                :             50000             |
 |  Mixing ratio                              :             0.500             |
 |  Convergence tolerence                     :         1.000E-10             |
 |  Convergence window                        :                 3             |
 *----------------------------------------------------------------------------*
 *-------------------------------- PLOTTING ----------------------------------*
 |  Plotting interpolated bandstructure       :                 T             |
 |   Number of K-path sections                :                 3             |
 |   Divisions along first K-path section     :               100             |
 |   Output format                            :           gnuplot             |
 |   Output mode                              :               s-k             |
 *----------------------------------------------------------------------------*
 |   K-space path sections:                                                   |
 |    From: G       0.000  0.000  0.000     To: M       0.500 -0.500  0.000   |
 |    From: M       0.500 -0.500  0.000     To: K       0.667 -0.333  0.000   |
 |    From: K       0.667 -0.333  0.000     To: G       0.000  0.000  0.000   |
 *----------------------------------------------------------------------------*
 Time to read parameters        0.097 (sec)

 *---------------------------------- K-MESH ----------------------------------*
 +----------------------------------------------------------------------------+
 |                    Distance to Nearest-Neighbour Shells                    |
 |                    ------------------------------------                    |
 |          Shell             Distance (Ang^-1)          Multiplicity         |
 |          -----             -----------------          ------------         |
 |             1                   0.153269                      2            |
 |             2                   0.184977                      6            |
 |             3                   0.240225                     12            |
 |             4                   0.306538                      2            |
 |             5                   0.320389                      6            |
 |             6                   0.355163                     12            |
 |             7                   0.358025                     12            |
 |             8                   0.369954                      6            |
 |             9                   0.400446                     12            |
 |            10                   0.443413                     12            |
 |            11                   0.459807                      2            |
 |            12                   0.480449                     12            |
 |            13                   0.489403                     12            |
 |            14                   0.495620                     12            |
 |            15                   0.512842                     24            |
 |            16                   0.554931                      6            |
 |            17                   0.560421                     12            |
 |            18                   0.575708                     12            |
 |            19                   0.577478                     24            |
 |            20                   0.590160                     12            |
 |            21                   0.613076                      2            |
 |            22                   0.633967                     12            |
 |            23                   0.640374                     12            |
 |            24                   0.640779                      6            |
 |            25                   0.658854                     12            |
 |            26                   0.666944                     12            |
 |            27                   0.671519                     24            |
 |            28                   0.684328                     24            |
 |            29                   0.691746                     12            |
 |            30                   0.710326                     12            |
 |            31                   0.716051                     12            |
 |            32                   0.720674                     12            |
 |            33                   0.734016                     24            |
 |            34                   0.739907                      6            |
 |            35                   0.755615                     12            |
 |            36                   0.766345                      2            |
 +----------------------------------------------------------------------------+
 | The b-vectors are chosen automatically                                     |
 | The following shells are used:   1,  2                                     |
 +----------------------------------------------------------------------------+
 |                        Shell   # Nearest-Neighbours                        |
 |                        -----   --------------------                        |
 |                          1               2                                 |
 |                          2               6                                 |
 +----------------------------------------------------------------------------+
 | Completeness relation is fully satisfied [Eq. (B1), PRB 56, 12847 (1997)]  |
 +----------------------------------------------------------------------------+
 |                  b_k Vectors (Ang^-1) and Weights (Ang^2)                  |
 |                  ----------------------------------------                  |
 |            No.         b_k(x)      b_k(y)      b_k(z)        w_b           |
 |            ---        --------------------------------     --------        |
 |             1         0.000000    0.000000    0.153269    21.284374        |
 |             2         0.000000    0.000000   -0.153269    21.284374        |
 |             3         0.000000    0.184977    0.000000     9.741907        |
 |             4         0.160195    0.092488    0.000000     9.741907        |
 |             5         0.000000   -0.184977    0.000000     9.741907        |
 |             6         0.160195   -0.092488    0.000000     9.741907        |
 |             7        -0.160195   -0.092488    0.000000     9.741907        |
 |             8        -0.160195    0.092488    0.000000     9.741907        |
 +----------------------------------------------------------------------------+
 |                           b_k Directions (Ang^-1)                          |
 |                           -----------------------                          |
 |            No.           x           y           z                         |
 |            ---        --------------------------------                     |
 |             1         0.000000    0.000000    0.153269                     |
 |             2         0.000000    0.184977    0.000000                     |
 |             3         0.160195    0.092488    0.000000                     |
 |             4         0.160195   -0.092488    0.000000                     |
 +----------------------------------------------------------------------------+
  
 Time to get kmesh              0.645 (sec)
 *============================================================================*
 |                              MEMORY ESTIMATE                               |
 |         Maximum RAM allocated during each phase of the calculation         |
 *============================================================================*
 |                        Disentanglement          271.86 Mb                  |
 |                            Wannierise:          140.52 Mb                  |
 |                          plot_wannier:          140.52 Mb                  |
 *----------------------------------------------------------------------------*
  
 Starting a new Wannier90 calculation ...


 Reading overlaps from C.mmn    :  Created on 17Mar2024 at 21:54:45

 Reading projections from C.amn :  Created on 17Mar2024 at 21:54: 8

 Time to read overlaps          9.274 (sec)

 *------------------------------- DISENTANGLE --------------------------------*
 +----------------------------------------------------------------------------+
 |                              Energy  Windows                               |
 |                              ---------------                               |
 |                   Outer:  -13.00000  to   45.00000  (eV)                   |
 |                   Inner:  -13.00000  to   10.92880  (eV)                   |
 +----------------------------------------------------------------------------+
   Number of target bands to extract:   16

                   Unitarised projection of Wannier functions                  
                   ------------------------------------------                  
   A_mn = <psi_m|g_n> --> S = A.A^+ --> U = S^-1/2.A
   In dis_project... done
   Using an inner window (linner = T)
   In dis_proj_froz... done

                   Extraction of optimally-connected subspace                  
                   ------------------------------------------                  
 +---------------------------------------------------------------------+<-- DIS
 |  Iter     Omega_I(i-1)      Omega_I(i)      Delta (frac.)    Time   |<-- DIS
 +---------------------------------------------------------------------+<-- DIS
       1       8.67506959       8.14343005       6.528E-02      0.00    <-- DIS
       2       8.26838985       7.99601441       3.406E-02      0.02    <-- DIS
       3       8.09517705       7.89154407       2.580E-02      0.04    <-- DIS
       4       7.96483433       7.81222201       1.954E-02      0.06    <-- DIS
       5       7.86602375       7.74976012       1.500E-02      0.08    <-- DIS
       6       7.78974395       7.69921376       1.176E-02      0.10    <-- DIS
       7       7.72955081       7.65739688       9.423E-03      0.12    <-- DIS
       8       7.68097804       7.62216451       7.716E-03      0.14    <-- DIS
       9       7.64095067       7.59202259       6.445E-03      0.16    <-- DIS
      10       7.60733890       7.56590011       5.477E-03      0.18    <-- DIS
      11       7.57864821       7.54301009       4.725E-03      0.20    <-- DIS
      12       7.55381173       7.52276168       4.127E-03      0.22    <-- DIS
      13       7.53205325       7.50470277       3.644E-03      0.24    <-- DIS
      14       7.51279675       7.48848155       3.247E-03      0.26    <-- DIS
      15       7.49560646       7.47382005       2.915E-03      0.28    <-- DIS
      16       7.48014661       7.46049568       2.634E-03      0.30    <-- DIS
      17       7.46615400       7.44832791       2.393E-03      0.32    <-- DIS
      18       7.45341912       7.43716865       2.185E-03      0.34    <-- DIS
      19       7.44177275       7.42689518       2.003E-03      0.36    <-- DIS
      20       7.43107650       7.41740477       1.843E-03      0.38    <-- DIS
      21       7.42121581       7.40861069       1.701E-03      0.40    <-- DIS
      22       7.41209488       7.40043910       1.575E-03      0.42    <-- DIS
      23       7.40363281       7.39282665       1.462E-03      0.44    <-- DIS
      24       7.39576068       7.38571864       1.360E-03      0.46    <-- DIS
      25       7.38841932       7.37906748       1.267E-03      0.48    <-- DIS
      26       7.38155754       7.37283157       1.184E-03      0.49    <-- DIS
      27       7.37513077       7.36697432       1.107E-03      0.51    <-- DIS
      28       7.36910000       7.36146340       1.037E-03      0.53    <-- DIS
      29       7.36343082       7.35627007       9.734E-04      0.55    <-- DIS
      30       7.35809280       7.35136874       9.147E-04      0.57    <-- DIS
      31       7.35305886       7.34673648       8.606E-04      0.59    <-- DIS
      32       7.34830482       7.34235268       8.107E-04      0.61    <-- DIS
      33       7.34380899       7.33819878       7.645E-04      0.63    <-- DIS
      34       7.33955184       7.33425798       7.218E-04      0.65    <-- DIS
      35       7.33551577       7.33051504       6.822E-04      0.67    <-- DIS
      36       7.33168481       7.32695612       6.454E-04      0.69    <-- DIS
      37       7.32804446       7.32356859       6.112E-04      0.71    <-- DIS
      38       7.32458152       7.32034092       5.793E-04      0.73    <-- DIS
      39       7.32128396       7.31726255       5.496E-04      0.75    <-- DIS
      40       7.31814075       7.31432380       5.218E-04      0.77    <-- DIS
      41       7.31514181       7.31151577       4.959E-04      0.79    <-- DIS
      42       7.31227785       7.30883028       4.717E-04      0.81    <-- DIS
      43       7.30954035       7.30625976       4.490E-04      0.83    <-- DIS
      44       7.30692145       7.30379726       4.277E-04      0.84    <-- DIS
      45       7.30441392       7.30143632       4.078E-04      0.86    <-- DIS
      46       7.30201103       7.29917099       3.891E-04      0.88    <-- DIS
      47       7.29970661       7.29699573       3.715E-04      0.90    <-- DIS
      48       7.29749491       7.29490542       3.550E-04      0.92    <-- DIS
      49       7.29537060       7.29289528       3.394E-04      0.94    <-- DIS
      50       7.29332873       7.29096090       3.248E-04      0.96    <-- DIS
      51       7.29136472       7.28909813       3.110E-04      0.98    <-- DIS
      52       7.28947428       7.28730315       2.979E-04      1.00    <-- DIS
      53       7.28765343       7.28557236       2.856E-04      1.02    <-- DIS
      54       7.28589847       7.28390243       2.740E-04      1.04    <-- DIS
      55       7.28420591       7.28229022       2.631E-04      1.05    <-- DIS
      56       7.28257254       7.28073281       2.527E-04      1.07    <-- DIS
      57       7.28099532       7.27922747       2.429E-04      1.09    <-- DIS
      58       7.27947143       7.27777165       2.336E-04      1.11    <-- DIS
      59       7.27799822       7.27636294       2.247E-04      1.13    <-- DIS
      60       7.27657321       7.27499908       2.164E-04      1.15    <-- DIS
      61       7.27519408       7.27367798       2.084E-04      1.17    <-- DIS
      62       7.27385864       7.27239765       2.009E-04      1.19    <-- DIS
      63       7.27256485       7.27115622       1.937E-04      1.21    <-- DIS
      64       7.27131079       7.26995194       1.869E-04      1.23    <-- DIS
      65       7.27009464       7.26878316       1.804E-04      1.25    <-- DIS
      66       7.26891471       7.26764834       1.742E-04      1.26    <-- DIS
      67       7.26776940       7.26654600       1.684E-04      1.28    <-- DIS
      68       7.26665720       7.26547477       1.627E-04      1.30    <-- DIS
      69       7.26557668       7.26443334       1.574E-04      1.32    <-- DIS
      70       7.26452651       7.26342049       1.523E-04      1.34    <-- DIS
      71       7.26350543       7.26243506       1.474E-04      1.36    <-- DIS
      72       7.26251223       7.26147595       1.427E-04      1.38    <-- DIS
      73       7.26154579       7.26054212       1.382E-04      1.40    <-- DIS
      74       7.26060505       7.25963258       1.340E-04      1.42    <-- DIS
      75       7.25968900       7.25874642       1.299E-04      1.44    <-- DIS
      76       7.25879668       7.25788274       1.259E-04      1.46    <-- DIS
      77       7.25792718       7.25704071       1.222E-04      1.47    <-- DIS
      78       7.25707965       7.25621955       1.185E-04      1.49    <-- DIS
      79       7.25625328       7.25541849       1.151E-04      1.51    <-- DIS
      80       7.25544729       7.25463682       1.117E-04      1.53    <-- DIS
      81       7.25466095       7.25387386       1.085E-04      1.55    <-- DIS
      82       7.25389358       7.25312897       1.054E-04      1.57    <-- DIS
      83       7.25314449       7.25240153       1.024E-04      1.59    <-- DIS
      84       7.25241308       7.25169096       9.958E-05      1.61    <-- DIS
      85       7.25169873       7.25099669       9.682E-05      1.63    <-- DIS
      86       7.25100088       7.25031820       9.416E-05      1.65    <-- DIS
      87       7.25031898       7.24965498       9.159E-05      1.67    <-- DIS
      88       7.24965252       7.24900655       8.911E-05      1.69    <-- DIS
      89       7.24900101       7.24837244       8.672E-05      1.71    <-- DIS
      90       7.24836396       7.24775221       8.441E-05      1.73    <-- DIS
      91       7.24774094       7.24714544       8.217E-05      1.75    <-- DIS
      92       7.24713151       7.24655173       8.001E-05      1.77    <-- DIS
      93       7.24653527       7.24597069       7.792E-05      1.79    <-- DIS
      94       7.24595180       7.24540194       7.589E-05      1.81    <-- DIS
      95       7.24538075       7.24484515       7.393E-05      1.83    <-- DIS
      96       7.24482175       7.24429996       7.203E-05      1.84    <-- DIS
      97       7.24427446       7.24376605       7.019E-05      1.86    <-- DIS
      98       7.24373853       7.24324310       6.840E-05      1.88    <-- DIS
      99       7.24321367       7.24273082       6.667E-05      1.90    <-- DIS
     100       7.24269955       7.24222893       6.498E-05      1.92    <-- DIS
     101       7.24219589       7.24173713       6.335E-05      1.94    <-- DIS
     102       7.24170240       7.24125516       6.176E-05      1.96    <-- DIS
     103       7.24121882       7.24078278       6.022E-05      1.98    <-- DIS
     104       7.24074489       7.24031972       5.872E-05      2.00    <-- DIS
     105       7.24028035       7.23986575       5.727E-05      2.02    <-- DIS
     106       7.23982496       7.23942065       5.585E-05      2.04    <-- DIS
     107       7.23937849       7.23898419       5.447E-05      2.05    <-- DIS
     108       7.23894072       7.23855616       5.313E-05      2.07    <-- DIS
     109       7.23851143       7.23813635       5.182E-05      2.09    <-- DIS
     110       7.23809042       7.23772456       5.055E-05      2.11    <-- DIS
     111       7.23767747       7.23732060       4.931E-05      2.13    <-- DIS
     112       7.23727240       7.23692430       4.810E-05      2.15    <-- DIS
     113       7.23687502       7.23653545       4.692E-05      2.17    <-- DIS
     114       7.23648516       7.23615390       4.578E-05      2.19    <-- DIS
     115       7.23610262       7.23577948       4.466E-05      2.21    <-- DIS
     116       7.23572725       7.23541202       4.357E-05      2.23    <-- DIS
     117       7.23535887       7.23505136       4.250E-05      2.25    <-- DIS
     118       7.23499734       7.23469736       4.146E-05      2.26    <-- DIS
     119       7.23464250       7.23434986       4.045E-05      2.28    <-- DIS
     120       7.23429419       7.23400872       3.946E-05      2.30    <-- DIS
     121       7.23395227       7.23367381       3.850E-05      2.32    <-- DIS
     122       7.23361661       7.23334498       3.755E-05      2.34    <-- DIS
     123       7.23328707       7.23302211       3.663E-05      2.36    <-- DIS
     124       7.23296351       7.23270507       3.573E-05      2.38    <-- DIS
     125       7.23264580       7.23239373       3.485E-05      2.40    <-- DIS
     126       7.23233383       7.23208799       3.399E-05      2.42    <-- DIS
     127       7.23202747       7.23178771       3.315E-05      2.44    <-- DIS
     128       7.23172660       7.23149278       3.233E-05      2.46    <-- DIS
     129       7.23143112       7.23120310       3.153E-05      2.48    <-- DIS
     130       7.23114090       7.23091856       3.075E-05      2.49    <-- DIS
     131       7.23085584       7.23063906       2.998E-05      2.51    <-- DIS
     132       7.23057583       7.23036448       2.923E-05      2.53    <-- DIS
     133       7.23030078       7.23009474       2.850E-05      2.55    <-- DIS
     134       7.23003059       7.22982973       2.778E-05      2.57    <-- DIS
     135       7.22976514       7.22956937       2.708E-05      2.59    <-- DIS
     136       7.22950436       7.22931356       2.639E-05      2.61    <-- DIS
     137       7.22924815       7.22906220       2.572E-05      2.63    <-- DIS
     138       7.22899642       7.22881522       2.507E-05      2.65    <-- DIS
     139       7.22874908       7.22857253       2.442E-05      2.67    <-- DIS
     140       7.22850604       7.22833405       2.379E-05      2.70    <-- DIS
     141       7.22826723       7.22809969       2.318E-05      2.72    <-- DIS
     142       7.22803256       7.22786938       2.258E-05      2.74    <-- DIS
     143       7.22780195       7.22764304       2.199E-05      2.76    <-- DIS
     144       7.22757532       7.22742059       2.141E-05      2.78    <-- DIS
     145       7.22735260       7.22720195       2.084E-05      2.80    <-- DIS
     146       7.22713372       7.22698707       2.029E-05      2.82    <-- DIS
     147       7.22691860       7.22677587       1.975E-05      2.84    <-- DIS
     148       7.22670717       7.22656827       1.922E-05      2.85    <-- DIS
     149       7.22649937       7.22636422       1.870E-05      2.87    <-- DIS
     150       7.22629512       7.22616364       1.819E-05      2.89    <-- DIS
     151       7.22609436       7.22596648       1.770E-05      2.91    <-- DIS
     152       7.22589702       7.22577266       1.721E-05      2.93    <-- DIS
     153       7.22570305       7.22558214       1.673E-05      2.95    <-- DIS
     154       7.22551237       7.22539484       1.627E-05      2.97    <-- DIS
     155       7.22532494       7.22521071       1.581E-05      2.99    <-- DIS
     156       7.22514069       7.22502969       1.536E-05      3.01    <-- DIS
     157       7.22495956       7.22485173       1.492E-05      3.03    <-- DIS
     158       7.22478149       7.22467677       1.449E-05      3.05    <-- DIS
     159       7.22460644       7.22450476       1.407E-05      3.06    <-- DIS
     160       7.22443435       7.22433564       1.366E-05      3.08    <-- DIS
     161       7.22426516       7.22416936       1.326E-05      3.10    <-- DIS
     162       7.22409882       7.22400587       1.287E-05      3.12    <-- DIS
     163       7.22393528       7.22384513       1.248E-05      3.14    <-- DIS
     164       7.22377450       7.22368708       1.210E-05      3.16    <-- DIS
     165       7.22361642       7.22353167       1.173E-05      3.18    <-- DIS
     166       7.22346099       7.22337887       1.137E-05      3.20    <-- DIS
     167       7.22330817       7.22322861       1.101E-05      3.22    <-- DIS
     168       7.22315791       7.22308087       1.067E-05      3.24    <-- DIS
     169       7.22301017       7.22293559       1.033E-05      3.26    <-- DIS
     170       7.22286490       7.22279273       9.993E-06      3.28    <-- DIS
     171       7.22272206       7.22265224       9.666E-06      3.29    <-- DIS
     172       7.22258161       7.22251410       9.347E-06      3.31    <-- DIS
     173       7.22244350       7.22237825       9.034E-06      3.33    <-- DIS
     174       7.22230770       7.22224466       8.728E-06      3.35    <-- DIS
     175       7.22217416       7.22211329       8.428E-06      3.37    <-- DIS
     176       7.22204285       7.22198410       8.135E-06      3.39    <-- DIS
     177       7.22191372       7.22185705       7.848E-06      3.41    <-- DIS
     178       7.22178674       7.22173210       7.566E-06      3.43    <-- DIS
     179       7.22166188       7.22160922       7.291E-06      3.45    <-- DIS
     180       7.22153909       7.22148838       7.022E-06      3.47    <-- DIS
     181       7.22141834       7.22136954       6.758E-06      3.49    <-- DIS
     182       7.22129959       7.22125265       6.500E-06      3.50    <-- DIS
     183       7.22118282       7.22113770       6.248E-06      3.52    <-- DIS
     184       7.22106798       7.22102465       6.001E-06      3.54    <-- DIS
     185       7.22095505       7.22091346       5.759E-06      3.56    <-- DIS
     186       7.22084398       7.22080411       5.522E-06      3.58    <-- DIS
     187       7.22073476       7.22069656       5.290E-06      3.60    <-- DIS
     188       7.22062734       7.22059078       5.064E-06      3.62    <-- DIS
     189       7.22052170       7.22048674       4.842E-06      3.64    <-- DIS
     190       7.22041781       7.22038442       4.625E-06      3.66    <-- DIS
     191       7.22031564       7.22028377       4.413E-06      3.68    <-- DIS
     192       7.22021515       7.22018479       4.206E-06      3.70    <-- DIS
     193       7.22011633       7.22008743       4.003E-06      3.72    <-- DIS
     194       7.22001913       7.21999167       3.804E-06      3.73    <-- DIS
     195       7.21992354       7.21989748       3.610E-06      3.75    <-- DIS
     196       7.21982953       7.21980483       3.420E-06      3.77    <-- DIS
     197       7.21973706       7.21971371       3.234E-06      3.79    <-- DIS
     198       7.21964613       7.21962409       3.053E-06      3.81    <-- DIS
     199       7.21955669       7.21953593       2.875E-06      3.83    <-- DIS
     200       7.21946872       7.21944921       2.702E-06      3.85    <-- DIS
     201       7.21938220       7.21936392       2.532E-06      3.87    <-- DIS
     202       7.21929711       7.21928003       2.366E-06      3.89    <-- DIS
     203       7.21921342       7.21919750       2.204E-06      3.91    <-- DIS
     204       7.21913110       7.21911633       2.046E-06      3.93    <-- DIS
     205       7.21905014       7.21903649       1.891E-06      3.94    <-- DIS
     206       7.21897051       7.21895795       1.739E-06      3.96    <-- DIS
     207       7.21889219       7.21888070       1.592E-06      3.98    <-- DIS
     208       7.21881516       7.21880471       1.447E-06      4.00    <-- DIS
     209       7.21873939       7.21872996       1.306E-06      4.02    <-- DIS
     210       7.21866487       7.21865644       1.168E-06      4.04    <-- DIS
     211       7.21859157       7.21858411       1.034E-06      4.06    <-- DIS
     212       7.21851948       7.21851296       9.022E-07      4.08    <-- DIS
     213       7.21844857       7.21844298       7.739E-07      4.10    <-- DIS
     214       7.21837882       7.21837414       6.485E-07      4.12    <-- DIS
     215       7.21831022       7.21830642       5.262E-07      4.14    <-- DIS
     216       7.21824274       7.21823981       4.067E-07      4.16    <-- DIS
     217       7.21817637       7.21817428       2.902E-07      4.17    <-- DIS
     218       7.21811109       7.21810982       1.764E-07      4.19    <-- DIS
     219       7.21804688       7.21804641       6.538E-08      4.21    <-- DIS
     220       7.21798373       7.21798404      -4.294E-08      4.23    <-- DIS
     221       7.21792160       7.21792268      -1.486E-07      4.25    <-- DIS
     222       7.21786050       7.21786232      -2.517E-07      4.27    <-- DIS
     223       7.21780040       7.21780294      -3.522E-07      4.29    <-- DIS
     224       7.21774128       7.21774453      -4.502E-07      4.31    <-- DIS
     225       7.21768313       7.21768707      -5.458E-07      4.33    <-- DIS
     226       7.21762594       7.21763055      -6.390E-07      4.35    <-- DIS
     227       7.21756968       7.21757495      -7.298E-07      4.37    <-- DIS
     228       7.21751434       7.21752025      -8.183E-07      4.38    <-- DIS
     229       7.21745991       7.21746644      -9.045E-07      4.40    <-- DIS
     230       7.21740637       7.21741350      -9.885E-07      4.42    <-- DIS
     231       7.21735370       7.21736143      -1.070E-06      4.44    <-- DIS
     232       7.21730190       7.21731020      -1.150E-06      4.46    <-- DIS
     233       7.21725095       7.21725981      -1.228E-06      4.48    <-- DIS
     234       7.21720083       7.21721023      -1.303E-06      4.50    <-- DIS
     235       7.21715153       7.21716146      -1.377E-06      4.52    <-- DIS
     236       7.21710303       7.21711349      -1.448E-06      4.54    <-- DIS
     237       7.21705533       7.21706629      -1.518E-06      4.56    <-- DIS
     238       7.21700841       7.21701986      -1.586E-06      4.58    <-- DIS
     239       7.21696226       7.21697418      -1.651E-06      4.59    <-- DIS
     240       7.21691686       7.21692924      -1.715E-06      4.61    <-- DIS
     241       7.21687221       7.21688504      -1.778E-06      4.63    <-- DIS
     242       7.21682828       7.21684155      -1.838E-06      4.65    <-- DIS
     243       7.21678508       7.21679877      -1.897E-06      4.67    <-- DIS
     244       7.21674258       7.21675668      -1.954E-06      4.69    <-- DIS
     245       7.21670077       7.21671527      -2.009E-06      4.71    <-- DIS
     246       7.21665965       7.21667454      -2.063E-06      4.73    <-- DIS
     247       7.21661920       7.21663447      -2.115E-06      4.75    <-- DIS
     248       7.21657941       7.21659504      -2.166E-06      4.77    <-- DIS
     249       7.21654027       7.21655626      -2.215E-06      4.79    <-- DIS
     250       7.21650177       7.21651811      -2.263E-06      4.80    <-- DIS
     251       7.21646391       7.21648057      -2.309E-06      4.82    <-- DIS
     252       7.21642666       7.21644364      -2.354E-06      4.84    <-- DIS
     253       7.21639001       7.21640731      -2.397E-06      4.86    <-- DIS
     254       7.21635397       7.21637157      -2.439E-06      4.88    <-- DIS
     255       7.21631852       7.21633641      -2.480E-06      4.90    <-- DIS
     256       7.21628364       7.21630182      -2.519E-06      4.92    <-- DIS
     257       7.21624934       7.21626779      -2.557E-06      4.94    <-- DIS
     258       7.21621560       7.21623431      -2.594E-06      4.96    <-- DIS
     259       7.21618240       7.21620138      -2.629E-06      4.98    <-- DIS
     260       7.21614975       7.21616897      -2.664E-06      5.00    <-- DIS
     261       7.21611764       7.21613710      -2.697E-06      5.02    <-- DIS
     262       7.21608604       7.21610573      -2.729E-06      5.03    <-- DIS
     263       7.21605497       7.21607488      -2.760E-06      5.05    <-- DIS
     264       7.21602440       7.21604453      -2.789E-06      5.07    <-- DIS
     265       7.21599433       7.21601466      -2.818E-06      5.09    <-- DIS
     266       7.21596475       7.21598529      -2.845E-06      5.11    <-- DIS
     267       7.21593566       7.21595638      -2.872E-06      5.13    <-- DIS
     268       7.21590704       7.21592795      -2.897E-06      5.15    <-- DIS
     269       7.21587889       7.21589997      -2.922E-06      5.17    <-- DIS
     270       7.21585120       7.21587245      -2.945E-06      5.19    <-- DIS
     271       7.21582396       7.21584537      -2.968E-06      5.21    <-- DIS
     272       7.21579716       7.21581873      -2.989E-06      5.23    <-- DIS
     273       7.21577081       7.21579252      -3.010E-06      5.24    <-- DIS
     274       7.21574488       7.21576674      -3.029E-06      5.26    <-- DIS
     275       7.21571938       7.21574137      -3.048E-06      5.28    <-- DIS
     276       7.21569429       7.21571642      -3.066E-06      5.30    <-- DIS
     277       7.21566962       7.21569186      -3.083E-06      5.32    <-- DIS
     278       7.21564534       7.21566771      -3.100E-06      5.34    <-- DIS
     279       7.21562147       7.21564394      -3.115E-06      5.36    <-- DIS
     280       7.21559798       7.21562056      -3.130E-06      5.38    <-- DIS
     281       7.21557488       7.21559756      -3.144E-06      5.40    <-- DIS
     282       7.21555215       7.21557493      -3.157E-06      5.42    <-- DIS
     283       7.21552980       7.21555267      -3.169E-06      5.44    <-- DIS
     284       7.21550781       7.21553076      -3.181E-06      5.45    <-- DIS
     285       7.21548618       7.21550921      -3.192E-06      5.47    <-- DIS
     286       7.21546490       7.21548801      -3.202E-06      5.49    <-- DIS
     287       7.21544398       7.21546715      -3.212E-06      5.51    <-- DIS
     288       7.21542339       7.21544663      -3.221E-06      5.53    <-- DIS
     289       7.21540314       7.21542644      -3.229E-06      5.55    <-- DIS
     290       7.21538322       7.21540657      -3.237E-06      5.57    <-- DIS
     291       7.21536363       7.21538703      -3.244E-06      5.59    <-- DIS
     292       7.21534435       7.21536781      -3.250E-06      5.61    <-- DIS
     293       7.21532540       7.21534889      -3.256E-06      5.63    <-- DIS
     294       7.21530675       7.21533028      -3.261E-06      5.65    <-- DIS
     295       7.21528840       7.21531197      -3.266E-06      5.66    <-- DIS
     296       7.21527036       7.21529395      -3.270E-06      5.68    <-- DIS
     297       7.21525261       7.21527623      -3.274E-06      5.70    <-- DIS
     298       7.21523515       7.21525879      -3.277E-06      5.72    <-- DIS
     299       7.21521798       7.21524164      -3.280E-06      5.74    <-- DIS
     300       7.21520108       7.21522476      -3.282E-06      5.76    <-- DIS
     301       7.21518447       7.21520816      -3.283E-06      5.78    <-- DIS
     302       7.21516812       7.21519182      -3.284E-06      5.80    <-- DIS
     303       7.21515205       7.21517575      -3.285E-06      5.82    <-- DIS
     304       7.21513623       7.21515993      -3.285E-06      5.84    <-- DIS
     305       7.21512067       7.21514438      -3.285E-06      5.86    <-- DIS
     306       7.21510537       7.21512907      -3.284E-06      5.88    <-- DIS
     307       7.21509032       7.21511401      -3.283E-06      5.89    <-- DIS
     308       7.21507551       7.21509919      -3.282E-06      5.91    <-- DIS
     309       7.21506095       7.21508462      -3.280E-06      5.93    <-- DIS
     310       7.21504663       7.21507027      -3.278E-06      5.95    <-- DIS
     311       7.21503254       7.21505616      -3.275E-06      5.97    <-- DIS
     312       7.21501868       7.21504228      -3.272E-06      5.99    <-- DIS
     313       7.21500504       7.21502862      -3.268E-06      6.01    <-- DIS
     314       7.21499163       7.21501519      -3.265E-06      6.03    <-- DIS
     315       7.21497844       7.21500196      -3.261E-06      6.05    <-- DIS
     316       7.21496546       7.21498896      -3.256E-06      6.07    <-- DIS
     317       7.21495270       7.21497616      -3.251E-06      6.09    <-- DIS
     318       7.21494015       7.21496357      -3.246E-06      6.10    <-- DIS
     319       7.21492780       7.21495118      -3.241E-06      6.12    <-- DIS
     320       7.21491565       7.21493899      -3.235E-06      6.14    <-- DIS
     321       7.21490370       7.21492700      -3.229E-06      6.16    <-- DIS
     322       7.21489195       7.21491521      -3.223E-06      6.18    <-- DIS
     323       7.21488039       7.21490360      -3.216E-06      6.20    <-- DIS
     324       7.21486902       7.21489218      -3.210E-06      6.22    <-- DIS
     325       7.21485784       7.21488094      -3.203E-06      6.24    <-- DIS
     326       7.21484684       7.21486989      -3.195E-06      6.26    <-- DIS
     327       7.21483602       7.21485901      -3.188E-06      6.28    <-- DIS
     328       7.21482537       7.21484831      -3.180E-06      6.30    <-- DIS
     329       7.21481490       7.21483779      -3.172E-06      6.31    <-- DIS
     330       7.21480460       7.21482743      -3.163E-06      6.33    <-- DIS
     331       7.21479447       7.21481724      -3.155E-06      6.35    <-- DIS
     332       7.21478451       7.21480721      -3.146E-06      6.37    <-- DIS
     333       7.21477471       7.21479735      -3.137E-06      6.39    <-- DIS
     334       7.21476507       7.21478764      -3.128E-06      6.41    <-- DIS
     335       7.21475559       7.21477809      -3.119E-06      6.43    <-- DIS
     336       7.21474626       7.21476870      -3.109E-06      6.45    <-- DIS
     337       7.21473709       7.21475945      -3.100E-06      6.47    <-- DIS
     338       7.21472807       7.21475036      -3.090E-06      6.49    <-- DIS
     339       7.21471919       7.21474141      -3.080E-06      6.51    <-- DIS
     340       7.21471046       7.21473261      -3.070E-06      6.52    <-- DIS
     341       7.21470188       7.21472395      -3.059E-06      6.54    <-- DIS
     342       7.21469343       7.21471543      -3.049E-06      6.56    <-- DIS
     343       7.21468512       7.21470704      -3.038E-06      6.58    <-- DIS
     344       7.21467695       7.21469880      -3.027E-06      6.60    <-- DIS
     345       7.21466892       7.21469068      -3.016E-06      6.62    <-- DIS
     346       7.21466101       7.21468269      -3.005E-06      6.64    <-- DIS
     347       7.21465324       7.21467484      -2.994E-06      6.66    <-- DIS
     348       7.21464559       7.21466711      -2.983E-06      6.68    <-- DIS
     349       7.21463807       7.21465950      -2.971E-06      6.70    <-- DIS
     350       7.21463067       7.21465202      -2.960E-06      6.72    <-- DIS
     351       7.21462339       7.21464466      -2.948E-06      6.73    <-- DIS
     352       7.21461623       7.21463742      -2.936E-06      6.75    <-- DIS
     353       7.21460919       7.21463029      -2.924E-06      6.77    <-- DIS
     354       7.21460227       7.21462328      -2.912E-06      6.79    <-- DIS
     355       7.21459546       7.21461638      -2.900E-06      6.81    <-- DIS
     356       7.21458876       7.21460960      -2.888E-06      6.83    <-- DIS
     357       7.21458217       7.21460292      -2.876E-06      6.85    <-- DIS
     358       7.21457569       7.21459635      -2.863E-06      6.87    <-- DIS
     359       7.21456932       7.21458988      -2.851E-06      6.89    <-- DIS
     360       7.21456305       7.21458352      -2.838E-06      6.91    <-- DIS
     361       7.21455688       7.21457727      -2.826E-06      6.93    <-- DIS
     362       7.21455081       7.21457111      -2.813E-06      6.94    <-- DIS
     363       7.21454485       7.21456505      -2.801E-06      6.96    <-- DIS
     364       7.21453898       7.21455909      -2.788E-06      6.98    <-- DIS
     365       7.21453321       7.21455323      -2.775E-06      7.00    <-- DIS
     366       7.21452754       7.21454746      -2.762E-06      7.02    <-- DIS
     367       7.21452195       7.21454179      -2.749E-06      7.04    <-- DIS
     368       7.21451646       7.21453620      -2.736E-06      7.06    <-- DIS
     369       7.21451106       7.21453071      -2.723E-06      7.08    <-- DIS
     370       7.21450575       7.21452530      -2.710E-06      7.10    <-- DIS
     371       7.21450053       7.21451998      -2.697E-06      7.12    <-- DIS
     372       7.21449539       7.21451475      -2.684E-06      7.14    <-- DIS
     373       7.21449034       7.21450960      -2.670E-06      7.15    <-- DIS
     374       7.21448536       7.21450453      -2.657E-06      7.17    <-- DIS
     375       7.21448048       7.21449955      -2.644E-06      7.19    <-- DIS
     376       7.21447567       7.21449465      -2.630E-06      7.21    <-- DIS
     377       7.21447094       7.21448982      -2.617E-06      7.23    <-- DIS
     378       7.21446629       7.21448507      -2.604E-06      7.25    <-- DIS
     379       7.21446172       7.21448040      -2.590E-06      7.27    <-- DIS
     380       7.21445722       7.21447581      -2.577E-06      7.29    <-- DIS
     381       7.21445279       7.21447129      -2.564E-06      7.31    <-- DIS
     382       7.21444844       7.21446684      -2.550E-06      7.33    <-- DIS
     383       7.21444416       7.21446246      -2.537E-06      7.35    <-- DIS
     384       7.21443995       7.21445816      -2.523E-06      7.37    <-- DIS
     385       7.21443581       7.21445392      -2.510E-06      7.38    <-- DIS
     386       7.21443174       7.21444975      -2.496E-06      7.40    <-- DIS
     387       7.21442774       7.21444565      -2.483E-06      7.42    <-- DIS
     388       7.21442380       7.21444161      -2.469E-06      7.44    <-- DIS
     389       7.21441992       7.21443764      -2.456E-06      7.46    <-- DIS
     390       7.21441611       7.21443374      -2.442E-06      7.48    <-- DIS
     391       7.21441237       7.21442989      -2.429E-06      7.50    <-- DIS
     392       7.21440868       7.21442611      -2.416E-06      7.52    <-- DIS
     393       7.21440506       7.21442239      -2.402E-06      7.54    <-- DIS
     394       7.21440150       7.21441873      -2.389E-06      7.56    <-- DIS
     395       7.21439799       7.21441513      -2.375E-06      7.58    <-- DIS
     396       7.21439454       7.21441158      -2.362E-06      7.59    <-- DIS
     397       7.21439115       7.21440810      -2.348E-06      7.61    <-- DIS
     398       7.21438782       7.21440466      -2.335E-06      7.63    <-- DIS
     399       7.21438454       7.21440129      -2.322E-06      7.65    <-- DIS
     400       7.21438132       7.21439797      -2.308E-06      7.67    <-- DIS
     401       7.21437814       7.21439470      -2.295E-06      7.69    <-- DIS
     402       7.21437503       7.21439149      -2.282E-06      7.71    <-- DIS
     403       7.21437196       7.21438832      -2.268E-06      7.73    <-- DIS
     404       7.21436894       7.21438521      -2.255E-06      7.75    <-- DIS
     405       7.21436598       7.21438215      -2.242E-06      7.77    <-- DIS
     406       7.21436306       7.21437913      -2.228E-06      7.79    <-- DIS
     407       7.21436019       7.21437617      -2.215E-06      7.81    <-- DIS
     408       7.21435737       7.21437325      -2.202E-06      7.82    <-- DIS
     409       7.21435459       7.21437038      -2.189E-06      7.84    <-- DIS
     410       7.21435186       7.21436756      -2.176E-06      7.87    <-- DIS
     411       7.21434918       7.21436478      -2.163E-06      7.90    <-- DIS
     412       7.21434654       7.21436205      -2.150E-06      7.92    <-- DIS
     413       7.21434395       7.21435936      -2.137E-06      7.94    <-- DIS
     414       7.21434139       7.21435671      -2.124E-06      7.95    <-- DIS
     415       7.21433888       7.21435411      -2.111E-06      7.97    <-- DIS
     416       7.21433642       7.21435155      -2.098E-06      7.99    <-- DIS
     417       7.21433399       7.21434903      -2.085E-06      8.01    <-- DIS
     418       7.21433160       7.21434655      -2.072E-06      8.03    <-- DIS
     419       7.21432925       7.21434411      -2.059E-06      8.05    <-- DIS
     420       7.21432695       7.21434171      -2.046E-06      8.07    <-- DIS
     421       7.21432468       7.21433935      -2.034E-06      8.09    <-- DIS
     422       7.21432244       7.21433702      -2.021E-06      8.11    <-- DIS
     423       7.21432025       7.21433474      -2.008E-06      8.13    <-- DIS
     424       7.21431809       7.21433249      -1.996E-06      8.15    <-- DIS
     425       7.21431597       7.21433027      -1.983E-06      8.17    <-- DIS
     426       7.21431388       7.21432809      -1.970E-06      8.18    <-- DIS
     427       7.21431183       7.21432595      -1.958E-06      8.20    <-- DIS
     428       7.21430981       7.21432384      -1.945E-06      8.22    <-- DIS
     429       7.21430782       7.21432177      -1.933E-06      8.24    <-- DIS
     430       7.21430587       7.21431973      -1.921E-06      8.26    <-- DIS
     431       7.21430395       7.21431772      -1.908E-06      8.28    <-- DIS
     432       7.21430206       7.21431574      -1.896E-06      8.30    <-- DIS
     433       7.21430021       7.21431380      -1.884E-06      8.32    <-- DIS
     434       7.21429838       7.21431189      -1.872E-06      8.34    <-- DIS
     435       7.21429659       7.21431000      -1.860E-06      8.36    <-- DIS
     436       7.21429482       7.21430815      -1.848E-06      8.38    <-- DIS
     437       7.21429309       7.21430633      -1.836E-06      8.39    <-- DIS
     438       7.21429138       7.21430454      -1.824E-06      8.41    <-- DIS
     439       7.21428970       7.21430277      -1.812E-06      8.43    <-- DIS
     440       7.21428805       7.21430104      -1.800E-06      8.45    <-- DIS
     441       7.21428643       7.21429933      -1.788E-06      8.47    <-- DIS
     442       7.21428484       7.21429765      -1.776E-06      8.49    <-- DIS
     443       7.21428327       7.21429600      -1.764E-06      8.51    <-- DIS
     444       7.21428173       7.21429437      -1.753E-06      8.53    <-- DIS
     445       7.21428021       7.21429277      -1.741E-06      8.55    <-- DIS
     446       7.21427872       7.21429120      -1.729E-06      8.57    <-- DIS
     447       7.21427725       7.21428965      -1.718E-06      8.59    <-- DIS
     448       7.21427581       7.21428812      -1.706E-06      8.61    <-- DIS
     449       7.21427439       7.21428662      -1.695E-06      8.62    <-- DIS
     450       7.21427300       7.21428515      -1.684E-06      8.64    <-- DIS
     451       7.21427163       7.21428369      -1.672E-06      8.66    <-- DIS
     452       7.21427028       7.21428227      -1.661E-06      8.68    <-- DIS
     453       7.21426896       7.21428086      -1.650E-06      8.70    <-- DIS
     454       7.21426765       7.21427948      -1.639E-06      8.72    <-- DIS
     455       7.21426637       7.21427812      -1.628E-06      8.74    <-- DIS
     456       7.21426511       7.21427678      -1.617E-06      8.76    <-- DIS
     457       7.21426388       7.21427546      -1.606E-06      8.78    <-- DIS
     458       7.21426266       7.21427416      -1.595E-06      8.80    <-- DIS
     459       7.21426146       7.21427289      -1.584E-06      8.82    <-- DIS
     460       7.21426029       7.21427163      -1.573E-06      8.83    <-- DIS
     461       7.21425913       7.21427040      -1.562E-06      8.85    <-- DIS
     462       7.21425799       7.21426918      -1.551E-06      8.87    <-- DIS
     463       7.21425687       7.21426799      -1.541E-06      8.89    <-- DIS
     464       7.21425577       7.21426681      -1.530E-06      8.91    <-- DIS
     465       7.21425469       7.21426565      -1.520E-06      8.93    <-- DIS
     466       7.21425363       7.21426452      -1.509E-06      8.95    <-- DIS
     467       7.21425258       7.21426340      -1.499E-06      8.97    <-- DIS
     468       7.21425156       7.21426229      -1.488E-06      8.99    <-- DIS
     469       7.21425055       7.21426121      -1.478E-06      9.01    <-- DIS
     470       7.21424955       7.21426014      -1.468E-06      9.03    <-- DIS
     471       7.21424858       7.21425909      -1.457E-06      9.05    <-- DIS
     472       7.21424762       7.21425806      -1.447E-06      9.06    <-- DIS
     473       7.21424667       7.21425704      -1.437E-06      9.08    <-- DIS
     474       7.21424575       7.21425604      -1.427E-06      9.10    <-- DIS
     475       7.21424483       7.21425506      -1.417E-06      9.12    <-- DIS
     476       7.21424394       7.21425409      -1.407E-06      9.14    <-- DIS
     477       7.21424306       7.21425314      -1.397E-06      9.16    <-- DIS
     478       7.21424219       7.21425220      -1.387E-06      9.18    <-- DIS
     479       7.21424134       7.21425128      -1.378E-06      9.20    <-- DIS
     480       7.21424050       7.21425037      -1.368E-06      9.22    <-- DIS
     481       7.21423968       7.21424948      -1.358E-06      9.24    <-- DIS
     482       7.21423887       7.21424860      -1.349E-06      9.26    <-- DIS
     483       7.21423807       7.21424773      -1.339E-06      9.27    <-- DIS
     484       7.21423729       7.21424688      -1.330E-06      9.29    <-- DIS
     485       7.21423652       7.21424604      -1.320E-06      9.31    <-- DIS
     486       7.21423577       7.21424522      -1.311E-06      9.33    <-- DIS
     487       7.21423502       7.21424441      -1.301E-06      9.35    <-- DIS
     488       7.21423429       7.21424361      -1.292E-06      9.37    <-- DIS
     489       7.21423357       7.21424283      -1.283E-06      9.39    <-- DIS
     490       7.21423287       7.21424206      -1.274E-06      9.41    <-- DIS
     491       7.21423217       7.21424130      -1.265E-06      9.43    <-- DIS
     492       7.21423149       7.21424055      -1.255E-06      9.45    <-- DIS
     493       7.21423082       7.21423981      -1.246E-06      9.47    <-- DIS
     494       7.21423016       7.21423909      -1.237E-06      9.48    <-- DIS
     495       7.21422952       7.21423838      -1.229E-06      9.50    <-- DIS
     496       7.21422888       7.21423768      -1.220E-06      9.52    <-- DIS
     497       7.21422825       7.21423699      -1.211E-06      9.54    <-- DIS
     498       7.21422764       7.21423631      -1.202E-06      9.56    <-- DIS
     499       7.21422703       7.21423564      -1.193E-06      9.58    <-- DIS
     500       7.21422644       7.21423499      -1.185E-06      9.60    <-- DIS
     501       7.21422586       7.21423434      -1.176E-06      9.62    <-- DIS
     502       7.21422528       7.21423370      -1.168E-06      9.64    <-- DIS
     503       7.21422472       7.21423308      -1.159E-06      9.66    <-- DIS
     504       7.21422416       7.21423246      -1.151E-06      9.68    <-- DIS
     505       7.21422362       7.21423186      -1.142E-06      9.70    <-- DIS
     506       7.21422308       7.21423126      -1.134E-06      9.71    <-- DIS
     507       7.21422255       7.21423068      -1.126E-06      9.73    <-- DIS
     508       7.21422204       7.21423010      -1.118E-06      9.75    <-- DIS
     509       7.21422153       7.21422953      -1.109E-06      9.77    <-- DIS
     510       7.21422103       7.21422897      -1.101E-06      9.79    <-- DIS
     511       7.21422054       7.21422842      -1.093E-06      9.81    <-- DIS
     512       7.21422005       7.21422788      -1.085E-06      9.83    <-- DIS
     513       7.21421958       7.21422735      -1.077E-06      9.85    <-- DIS
     514       7.21421911       7.21422683      -1.069E-06      9.87    <-- DIS
     515       7.21421865       7.21422631      -1.061E-06      9.89    <-- DIS
     516       7.21421820       7.21422580      -1.054E-06      9.91    <-- DIS
     517       7.21421776       7.21422531      -1.046E-06      9.92    <-- DIS
     518       7.21421733       7.21422482      -1.038E-06      9.94    <-- DIS
     519       7.21421690       7.21422433      -1.030E-06      9.96    <-- DIS
     520       7.21421648       7.21422386      -1.023E-06      9.98    <-- DIS
     521       7.21421606       7.21422339      -1.015E-06     10.00    <-- DIS
     522       7.21421566       7.21422293      -1.008E-06     10.02    <-- DIS
     523       7.21421526       7.21422248      -1.000E-06     10.04    <-- DIS
     524       7.21421487       7.21422203      -9.929E-07     10.06    <-- DIS
     525       7.21421448       7.21422159      -9.855E-07     10.08    <-- DIS
     526       7.21421410       7.21422116      -9.782E-07     10.10    <-- DIS
     527       7.21421373       7.21422074      -9.709E-07     10.12    <-- DIS
     528       7.21421337       7.21422032      -9.637E-07     10.14    <-- DIS
     529       7.21421301       7.21421991      -9.565E-07     10.15    <-- DIS
     530       7.21421266       7.21421950      -9.494E-07     10.17    <-- DIS
     531       7.21421231       7.21421911      -9.423E-07     10.19    <-- DIS
     532       7.21421197       7.21421872      -9.353E-07     10.21    <-- DIS
     533       7.21421163       7.21421833      -9.283E-07     10.23    <-- DIS
     534       7.21421130       7.21421795      -9.213E-07     10.25    <-- DIS
     535       7.21421098       7.21421758      -9.145E-07     10.27    <-- DIS
     536       7.21421066       7.21421721      -9.076E-07     10.29    <-- DIS
     537       7.21421035       7.21421685      -9.008E-07     10.31    <-- DIS
     538       7.21421005       7.21421650      -8.940E-07     10.33    <-- DIS
     539       7.21420974       7.21421615      -8.873E-07     10.35    <-- DIS
     540       7.21420945       7.21421580      -8.807E-07     10.36    <-- DIS
     541       7.21420916       7.21421546      -8.741E-07     10.38    <-- DIS
     542       7.21420887       7.21421513      -8.675E-07     10.40    <-- DIS
     543       7.21420859       7.21421480      -8.610E-07     10.42    <-- DIS
     544       7.21420832       7.21421448      -8.545E-07     10.44    <-- DIS
     545       7.21420804       7.21421416      -8.480E-07     10.46    <-- DIS
     546       7.21420778       7.21421385      -8.416E-07     10.48    <-- DIS
     547       7.21420752       7.21421354      -8.353E-07     10.50    <-- DIS
     548       7.21420726       7.21421324      -8.290E-07     10.52    <-- DIS
     549       7.21420701       7.21421294      -8.227E-07     10.54    <-- DIS
     550       7.21420676       7.21421265      -8.165E-07     10.56    <-- DIS
     551       7.21420652       7.21421236      -8.103E-07     10.58    <-- DIS
     552       7.21420628       7.21421208      -8.042E-07     10.60    <-- DIS
     553       7.21420604       7.21421180      -7.981E-07     10.62    <-- DIS
     554       7.21420581       7.21421153      -7.920E-07     10.64    <-- DIS
     555       7.21420559       7.21421126      -7.860E-07     10.66    <-- DIS
     556       7.21420536       7.21421099      -7.801E-07     10.68    <-- DIS
     557       7.21420514       7.21421073      -7.741E-07     10.69    <-- DIS
     558       7.21420493       7.21421047      -7.682E-07     10.71    <-- DIS
     559       7.21420472       7.21421022      -7.624E-07     10.73    <-- DIS
     560       7.21420451       7.21420997      -7.566E-07     10.75    <-- DIS
     561       7.21420431       7.21420972      -7.508E-07     10.77    <-- DIS
     562       7.21420411       7.21420948      -7.451E-07     10.79    <-- DIS
     563       7.21420391       7.21420925      -7.394E-07     10.81    <-- DIS
     564       7.21420372       7.21420901      -7.338E-07     10.83    <-- DIS
     565       7.21420353       7.21420878      -7.282E-07     10.85    <-- DIS
     566       7.21420334       7.21420856      -7.226E-07     10.87    <-- DIS
     567       7.21420316       7.21420833      -7.171E-07     10.89    <-- DIS
     568       7.21420298       7.21420811      -7.116E-07     10.90    <-- DIS
     569       7.21420280       7.21420790      -7.062E-07     10.92    <-- DIS
     570       7.21420263       7.21420769      -7.008E-07     10.94    <-- DIS
     571       7.21420246       7.21420748      -6.954E-07     10.96    <-- DIS
     572       7.21420229       7.21420727      -6.901E-07     10.98    <-- DIS
     573       7.21420213       7.21420707      -6.848E-07     11.00    <-- DIS
     574       7.21420197       7.21420687      -6.796E-07     11.02    <-- DIS
     575       7.21420181       7.21420668      -6.743E-07     11.04    <-- DIS
     576       7.21420166       7.21420648      -6.692E-07     11.06    <-- DIS
     577       7.21420150       7.21420629      -6.640E-07     11.08    <-- DIS
     578       7.21420135       7.21420611      -6.589E-07     11.10    <-- DIS
     579       7.21420121       7.21420592      -6.539E-07     11.11    <-- DIS
     580       7.21420106       7.21420574      -6.488E-07     11.13    <-- DIS
     581       7.21420092       7.21420557      -6.438E-07     11.15    <-- DIS
     582       7.21420078       7.21420539      -6.389E-07     11.17    <-- DIS
     583       7.21420065       7.21420522      -6.340E-07     11.19    <-- DIS
     584       7.21420051       7.21420505      -6.291E-07     11.21    <-- DIS
     585       7.21420038       7.21420488      -6.242E-07     11.23    <-- DIS
     586       7.21420025       7.21420472      -6.194E-07     11.25    <-- DIS
     587       7.21420012       7.21420456      -6.146E-07     11.27    <-- DIS
     588       7.21420000       7.21420440      -6.099E-07     11.29    <-- DIS
     589       7.21419988       7.21420424      -6.052E-07     11.31    <-- DIS
     590       7.21419976       7.21420409      -6.005E-07     11.32    <-- DIS
     591       7.21419964       7.21420394      -5.959E-07     11.34    <-- DIS
     592       7.21419952       7.21420379      -5.912E-07     11.36    <-- DIS
     593       7.21419941       7.21420364      -5.867E-07     11.38    <-- DIS
     594       7.21419930       7.21420350      -5.821E-07     11.40    <-- DIS
     595       7.21419919       7.21420336      -5.776E-07     11.42    <-- DIS
     596       7.21419908       7.21420322      -5.731E-07     11.44    <-- DIS
     597       7.21419898       7.21420308      -5.687E-07     11.46    <-- DIS
     598       7.21419887       7.21420295      -5.643E-07     11.48    <-- DIS
     599       7.21419877       7.21420281      -5.599E-07     11.50    <-- DIS
     600       7.21419867       7.21420268      -5.556E-07     11.52    <-- DIS
     601       7.21419858       7.21420255      -5.513E-07     11.54    <-- DIS
     602       7.21419848       7.21420243      -5.470E-07     11.56    <-- DIS
     603       7.21419839       7.21420230      -5.427E-07     11.58    <-- DIS
     604       7.21419829       7.21420218      -5.385E-07     11.60    <-- DIS
     605       7.21419820       7.21420206      -5.343E-07     11.62    <-- DIS
     606       7.21419811       7.21420194      -5.302E-07     11.64    <-- DIS
     607       7.21419803       7.21420182      -5.260E-07     11.66    <-- DIS
     608       7.21419794       7.21420171      -5.219E-07     11.68    <-- DIS
     609       7.21419786       7.21420159      -5.179E-07     11.70    <-- DIS
     610       7.21419778       7.21420148      -5.138E-07     11.72    <-- DIS
     611       7.21419769       7.21420137      -5.098E-07     11.74    <-- DIS
     612       7.21419762       7.21420126      -5.059E-07     11.76    <-- DIS
     613       7.21419754       7.21420116      -5.019E-07     11.78    <-- DIS
     614       7.21419746       7.21420105      -4.980E-07     11.80    <-- DIS
     615       7.21419739       7.21420095      -4.941E-07     11.81    <-- DIS
     616       7.21419731       7.21420085      -4.903E-07     11.83    <-- DIS
     617       7.21419724       7.21420075      -4.864E-07     11.85    <-- DIS
     618       7.21419717       7.21420065      -4.826E-07     11.87    <-- DIS
     619       7.21419710       7.21420056      -4.789E-07     11.89    <-- DIS
     620       7.21419703       7.21420046      -4.751E-07     11.91    <-- DIS
     621       7.21419697       7.21420037      -4.714E-07     11.93    <-- DIS
     622       7.21419690       7.21420028      -4.677E-07     11.95    <-- DIS
     623       7.21419684       7.21420018      -4.641E-07     11.97    <-- DIS
     624       7.21419677       7.21420010      -4.604E-07     11.99    <-- DIS
     625       7.21419671       7.21420001      -4.568E-07     12.01    <-- DIS
     626       7.21419665       7.21419992      -4.533E-07     12.02    <-- DIS
     627       7.21419659       7.21419984      -4.497E-07     12.04    <-- DIS
     628       7.21419653       7.21419975      -4.462E-07     12.06    <-- DIS
     629       7.21419648       7.21419967      -4.427E-07     12.08    <-- DIS
     630       7.21419642       7.21419959      -4.392E-07     12.10    <-- DIS
     631       7.21419637       7.21419951      -4.358E-07     12.12    <-- DIS
     632       7.21419631       7.21419943      -4.323E-07     12.14    <-- DIS
     633       7.21419626       7.21419936      -4.290E-07     12.16    <-- DIS
     634       7.21419621       7.21419928      -4.256E-07     12.18    <-- DIS
     635       7.21419616       7.21419920      -4.222E-07     12.20    <-- DIS
     636       7.21419611       7.21419913      -4.189E-07     12.22    <-- DIS
     637       7.21419606       7.21419906      -4.156E-07     12.23    <-- DIS
     638       7.21419601       7.21419899      -4.124E-07     12.25    <-- DIS
     639       7.21419597       7.21419892      -4.091E-07     12.27    <-- DIS
     640       7.21419592       7.21419885      -4.059E-07     12.29    <-- DIS
     641       7.21419588       7.21419878      -4.027E-07     12.31    <-- DIS
     642       7.21419583       7.21419871      -3.995E-07     12.33    <-- DIS
     643       7.21419579       7.21419865      -3.964E-07     12.35    <-- DIS
     644       7.21419575       7.21419858      -3.933E-07     12.37    <-- DIS
     645       7.21419570       7.21419852      -3.902E-07     12.39    <-- DIS
     646       7.21419566       7.21419846      -3.871E-07     12.41    <-- DIS
     647       7.21419562       7.21419840      -3.841E-07     12.43    <-- DIS
     648       7.21419559       7.21419833      -3.810E-07     12.44    <-- DIS
     649       7.21419555       7.21419827      -3.780E-07     12.46    <-- DIS
     650       7.21419551       7.21419822      -3.751E-07     12.48    <-- DIS
     651       7.21419547       7.21419816      -3.721E-07     12.50    <-- DIS
     652       7.21419544       7.21419810      -3.692E-07     12.52    <-- DIS
     653       7.21419540       7.21419805      -3.662E-07     12.55    <-- DIS
     654       7.21419537       7.21419799      -3.634E-07     12.58    <-- DIS
     655       7.21419534       7.21419794      -3.605E-07     12.60    <-- DIS
     656       7.21419530       7.21419788      -3.576E-07     12.62    <-- DIS
     657       7.21419527       7.21419783      -3.548E-07     12.63    <-- DIS
     658       7.21419524       7.21419778      -3.520E-07     12.65    <-- DIS
     659       7.21419521       7.21419773      -3.492E-07     12.67    <-- DIS
     660       7.21419518       7.21419768      -3.465E-07     12.69    <-- DIS
     661       7.21419515       7.21419763      -3.437E-07     12.71    <-- DIS
     662       7.21419512       7.21419758      -3.410E-07     12.73    <-- DIS
     663       7.21419509       7.21419753      -3.383E-07     12.75    <-- DIS
     664       7.21419506       7.21419748      -3.356E-07     12.77    <-- DIS
     665       7.21419504       7.21419744      -3.330E-07     12.79    <-- DIS
     666       7.21419501       7.21419739      -3.304E-07     12.81    <-- DIS
     667       7.21419498       7.21419735      -3.277E-07     12.83    <-- DIS
     668       7.21419496       7.21419730      -3.251E-07     12.84    <-- DIS
     669       7.21419493       7.21419726      -3.226E-07     12.86    <-- DIS
     670       7.21419491       7.21419722      -3.200E-07     12.88    <-- DIS
     671       7.21419488       7.21419718      -3.175E-07     12.90    <-- DIS
     672       7.21419486       7.21419713      -3.150E-07     12.92    <-- DIS
     673       7.21419484       7.21419709      -3.125E-07     12.94    <-- DIS
     674       7.21419482       7.21419705      -3.100E-07     12.96    <-- DIS
     675       7.21419479       7.21419701      -3.075E-07     12.98    <-- DIS
     676       7.21419477       7.21419697      -3.051E-07     13.00    <-- DIS
     677       7.21419475       7.21419694      -3.027E-07     13.02    <-- DIS
     678       7.21419473       7.21419690      -3.003E-07     13.04    <-- DIS
     679       7.21419471       7.21419686      -2.979E-07     13.05    <-- DIS
     680       7.21419469       7.21419682      -2.955E-07     13.07    <-- DIS
     681       7.21419467       7.21419679      -2.932E-07     13.09    <-- DIS
     682       7.21419466       7.21419675      -2.909E-07     13.11    <-- DIS
     683       7.21419464       7.21419672      -2.885E-07     13.13    <-- DIS
     684       7.21419462       7.21419668      -2.863E-07     13.15    <-- DIS
     685       7.21419460       7.21419665      -2.840E-07     13.17    <-- DIS
     686       7.21419459       7.21419662      -2.817E-07     13.19    <-- DIS
     687       7.21419457       7.21419658      -2.795E-07     13.21    <-- DIS
     688       7.21419455       7.21419655      -2.773E-07     13.23    <-- DIS
     689       7.21419454       7.21419652      -2.751E-07     13.25    <-- DIS
     690       7.21419452       7.21419649      -2.729E-07     13.26    <-- DIS
     691       7.21419451       7.21419646      -2.707E-07     13.28    <-- DIS
     692       7.21419449       7.21419643      -2.686E-07     13.30    <-- DIS
     693       7.21419448       7.21419640      -2.664E-07     13.32    <-- DIS
     694       7.21419446       7.21419637      -2.643E-07     13.34    <-- DIS
     695       7.21419445       7.21419634      -2.622E-07     13.36    <-- DIS
     696       7.21419444       7.21419631      -2.601E-07     13.38    <-- DIS
     697       7.21419442       7.21419629      -2.580E-07     13.40    <-- DIS
     698       7.21419441       7.21419626      -2.560E-07     13.42    <-- DIS
     699       7.21419440       7.21419623      -2.539E-07     13.44    <-- DIS
     700       7.21419439       7.21419620      -2.519E-07     13.46    <-- DIS
     701       7.21419437       7.21419618      -2.499E-07     13.47    <-- DIS
     702       7.21419436       7.21419615      -2.479E-07     13.49    <-- DIS
     703       7.21419435       7.21419613      -2.460E-07     13.51    <-- DIS
     704       7.21419434       7.21419610      -2.440E-07     13.53    <-- DIS
     705       7.21419433       7.21419608      -2.420E-07     13.55    <-- DIS
     706       7.21419432       7.21419605      -2.401E-07     13.57    <-- DIS
     707       7.21419431       7.21419603      -2.382E-07     13.59    <-- DIS
     708       7.21419430       7.21419601      -2.363E-07     13.61    <-- DIS
     709       7.21419429       7.21419598      -2.344E-07     13.63    <-- DIS
     710       7.21419428       7.21419596      -2.326E-07     13.65    <-- DIS
     711       7.21419427       7.21419594      -2.307E-07     13.67    <-- DIS
     712       7.21419426       7.21419592      -2.289E-07     13.69    <-- DIS
     713       7.21419426       7.21419589      -2.270E-07     13.70    <-- DIS
     714       7.21419425       7.21419587      -2.252E-07     13.72    <-- DIS
     715       7.21419424       7.21419585      -2.234E-07     13.74    <-- DIS
     716       7.21419423       7.21419583      -2.216E-07     13.76    <-- DIS
     717       7.21419422       7.21419581      -2.199E-07     13.78    <-- DIS
     718       7.21419422       7.21419579      -2.181E-07     13.80    <-- DIS
     719       7.21419421       7.21419577      -2.164E-07     13.82    <-- DIS
     720       7.21419420       7.21419575      -2.146E-07     13.84    <-- DIS
     721       7.21419420       7.21419573      -2.129E-07     13.86    <-- DIS
     722       7.21419419       7.21419571      -2.112E-07     13.88    <-- DIS
     723       7.21419418       7.21419569      -2.095E-07     13.90    <-- DIS
     724       7.21419418       7.21419568      -2.079E-07     13.91    <-- DIS
     725       7.21419417       7.21419566      -2.062E-07     13.93    <-- DIS
     726       7.21419417       7.21419564      -2.046E-07     13.95    <-- DIS
     727       7.21419416       7.21419562      -2.029E-07     13.97    <-- DIS
     728       7.21419415       7.21419561      -2.013E-07     13.99    <-- DIS
     729       7.21419415       7.21419559      -1.997E-07     14.01    <-- DIS
     730       7.21419414       7.21419557      -1.981E-07     14.03    <-- DIS
     731       7.21419414       7.21419556      -1.965E-07     14.05    <-- DIS
     732       7.21419413       7.21419554      -1.949E-07     14.07    <-- DIS
     733       7.21419413       7.21419552      -1.934E-07     14.09    <-- DIS
     734       7.21419412       7.21419551      -1.918E-07     14.11    <-- DIS
     735       7.21419412       7.21419549      -1.903E-07     14.12    <-- DIS
     736       7.21419412       7.21419548      -1.888E-07     14.14    <-- DIS
     737       7.21419411       7.21419546      -1.873E-07     14.16    <-- DIS
     738       7.21419411       7.21419545      -1.858E-07     14.18    <-- DIS
     739       7.21419410       7.21419543      -1.843E-07     14.20    <-- DIS
     740       7.21419410       7.21419542      -1.828E-07     14.22    <-- DIS
     741       7.21419410       7.21419541      -1.813E-07     14.24    <-- DIS
     742       7.21419409       7.21419539      -1.799E-07     14.26    <-- DIS
     743       7.21419409       7.21419538      -1.784E-07     14.28    <-- DIS
     744       7.21419409       7.21419537      -1.770E-07     14.30    <-- DIS
     745       7.21419409       7.21419535      -1.756E-07     14.32    <-- DIS
     746       7.21419408       7.21419534      -1.742E-07     14.33    <-- DIS
     747       7.21419408       7.21419533      -1.728E-07     14.35    <-- DIS
     748       7.21419408       7.21419531      -1.714E-07     14.37    <-- DIS
     749       7.21419407       7.21419530      -1.700E-07     14.39    <-- DIS
     750       7.21419407       7.21419529      -1.687E-07     14.41    <-- DIS
     751       7.21419407       7.21419528      -1.673E-07     14.43    <-- DIS
     752       7.21419407       7.21419527      -1.660E-07     14.45    <-- DIS
     753       7.21419407       7.21419525      -1.647E-07     14.47    <-- DIS
     754       7.21419406       7.21419524      -1.633E-07     14.49    <-- DIS
     755       7.21419406       7.21419523      -1.620E-07     14.51    <-- DIS
     756       7.21419406       7.21419522      -1.607E-07     14.53    <-- DIS
     757       7.21419406       7.21419521      -1.594E-07     14.55    <-- DIS
     758       7.21419406       7.21419520      -1.582E-07     14.56    <-- DIS
     759       7.21419406       7.21419519      -1.569E-07     14.58    <-- DIS
     760       7.21419405       7.21419518      -1.556E-07     14.60    <-- DIS
     761       7.21419405       7.21419517      -1.544E-07     14.62    <-- DIS
     762       7.21419405       7.21419516      -1.531E-07     14.64    <-- DIS
     763       7.21419405       7.21419515      -1.519E-07     14.66    <-- DIS
     764       7.21419405       7.21419514      -1.507E-07     14.68    <-- DIS
     765       7.21419405       7.21419513      -1.495E-07     14.70    <-- DIS
[...]
  WF centre and spread    6  ( -0.001849,  0.001098,  4.792286 )     0.67093511
  WF centre and spread    7  (  0.294807,  0.169703,  5.366482 )     0.51096760
  WF centre and spread    8  (  0.000462, -0.340103,  5.366479 )     0.51097162
  WF centre and spread    9  (  1.518878,  0.876910,  1.953487 )     0.51440602
  WF centre and spread   10  (  1.226174,  0.707914,  1.372486 )     0.67349571
  WF centre and spread   11  (  0.932111,  0.876982,  1.952395 )     0.51391307
  WF centre and spread   12  (  1.225556,  0.368718,  1.952400 )     0.51391451
  WF centre and spread   13  (  0.290657,  1.247507,  5.069881 )     0.51819885
  WF centre and spread   14  (  0.006351,  1.411640,  5.659399 )     0.67350147
  WF centre and spread   15  ( -0.295486,  1.246558,  5.084022 )     0.51207236
  WF centre and spread   16  ( -0.001593,  1.755588,  5.084039 )     0.51206709
  Sum of centres and spreads (  9.805409, 16.983710, 56.255786 )     8.84285445
 
   4400    -0.581E-06     0.0003681150        8.8428446244     123.94  <-- CONV
        O_D=      0.0175523 O_OD=      1.6110979 O_TOT=      8.8428446 <-- SPRD
 Delta: O_D= -0.2457222E-07 O_OD= -0.5561377E-06 O_TOT= -0.5807099E-06 <-- DLTA
 ------------------------------------------------------------------------------

 Writing checkpoint file C.chk... done

 Cycle:   4450
  WF centre and spread    1  (  0.935471,  1.955387,  1.650819 )     0.51740300
  WF centre and spread    2  (  1.216546,  2.117675,  2.239422 )     0.67078263
  WF centre and spread    3  (  1.522823,  1.953939,  1.670836 )     0.50872929
  WF centre and spread    4  (  1.227893,  2.464770,  1.670820 )     0.50873469
  WF centre and spread    5  ( -0.293489,  0.169476,  5.370213 )     0.51259434
  WF centre and spread    6  ( -0.001629,  0.000972,  4.792284 )     0.67093644
  WF centre and spread    7  (  0.294735,  0.169724,  5.366643 )     0.51103716
  WF centre and spread    8  (  0.000408, -0.340051,  5.366640 )     0.51104018
  WF centre and spread    9  (  1.518904,  0.876925,  1.953396 )     0.51436566
  WF centre and spread   10  (  1.226112,  0.707879,  1.372486 )     0.67349617
  WF centre and spread   11  (  0.932132,  0.876987,  1.952442 )     0.51393435
  WF centre and spread   12  (  1.225572,  0.368733,  1.952444 )     0.51393405
  WF centre and spread   13  (  0.290974,  1.247324,  5.070943 )     0.51772408
  WF centre and spread   14  (  0.005629,  1.412057,  5.659425 )     0.67351414
  WF centre and spread   15  ( -0.295255,  1.246488,  5.083478 )     0.51229866
  WF centre and spread   16  ( -0.001417,  1.755424,  5.083495 )     0.51229236
  Sum of centres and spreads (  9.805409, 16.983710, 56.255787 )     8.84281721
 
   4450    -0.395E-06     0.0002597929        8.8428073847     125.05  <-- CONV
        O_D=      0.0175534 O_OD=      1.6110595 O_TOT=      8.8428074 <-- SPRD
 Delta: O_D=  0.8980960E-07 O_OD= -0.4850197E-06 O_TOT= -0.3952101E-06 <-- DLTA
 ------------------------------------------------------------------------------
 Cycle:   4500
  WF centre and spread    1  (  0.935163,  1.955209,  1.651803 )     0.51695857
  WF centre and spread    2  (  1.217227,  2.118068,  2.239457 )     0.67079779
  WF centre and spread    3  (  1.522611,  1.953876,  1.670327 )     0.50893635
  WF centre and spread    4  (  1.227733,  2.464618,  1.670310 )     0.50894214
  WF centre and spread    5  ( -0.293544,  0.169508,  5.370025 )     0.51251196
  WF centre and spread    6  ( -0.001499,  0.000897,  4.792283 )     0.67093688
  WF centre and spread    7  (  0.294692,  0.169736,  5.366738 )     0.51107787
  WF centre and spread    8  (  0.000376, -0.340020,  5.366735 )     0.51108103
  WF centre and spread    9  (  1.518919,  0.876933,  1.953343 )     0.51434175
  WF centre and spread   10  (  1.226076,  0.707858,  1.372486 )     0.67349610
  WF centre and spread   11  (  0.932144,  0.876991,  1.952469 )     0.51394658
  WF centre and spread   12  (  1.225581,  0.368741,  1.952470 )     0.51394607
  WF centre and spread   13  (  0.291161,  1.247216,  5.071574 )     0.51744431
  WF centre and spread   14  (  0.005200,  1.412304,  5.659439 )     0.67351977
  WF centre and spread   15  ( -0.295118,  1.246447,  5.083156 )     0.51243260
  WF centre and spread   16  ( -0.001312,  1.755326,  5.083173 )     0.51242646
  Sum of centres and spreads (  9.805409, 16.983710, 56.255788 )     8.84279623
 
   4500    -0.383E-06     0.0002490876        8.8427864024     125.98  <-- CONV
        O_D=      0.0175539 O_OD=      1.6110380 O_TOT=      8.8427864 <-- SPRD
 Delta: O_D=  0.3165039E-07 O_OD= -0.4142940E-06 O_TOT= -0.3826436E-06 <-- DLTA
 ------------------------------------------------------------------------------

 Writing checkpoint file C.chk... done

 Cycle:   4550
  WF centre and spread    1  (  0.934785,  1.954991,  1.653017 )     0.51641394
  WF centre and spread    2  (  1.218066,  2.118553,  2.239497 )     0.67081420
  WF centre and spread    3  (  1.522348,  1.953799,  1.669701 )     0.50919189
  WF centre and spread    4  (  1.227535,  2.464428,  1.669684 )     0.50919860
  WF centre and spread    5  ( -0.293611,  0.169546,  5.369795 )     0.51241158
  WF centre and spread    6  ( -0.001341,  0.000806,  4.792282 )     0.67093722
  WF centre and spread    7  (  0.294640,  0.169751,  5.366854 )     0.51112748
  WF centre and spread    8  (  0.000338, -0.339982,  5.366850 )     0.51113119
  WF centre and spread    9  (  1.518938,  0.876944,  1.953278 )     0.51431264
  WF centre and spread   10  (  1.226031,  0.707834,  1.372486 )     0.67349582
  WF centre and spread   11  (  0.932159,  0.876995,  1.952502 )     0.51396139
  WF centre and spread   12  (  1.225592,  0.368752,  1.952502 )     0.51396102
  WF centre and spread   13  (  0.291389,  1.247084,  5.072348 )     0.51710235
  WF centre and spread   14  (  0.004674,  1.412608,  5.659454 )     0.67352556
  WF centre and spread   15  ( -0.294949,  1.246396,  5.082761 )     0.51259711
  WF centre and spread   16  ( -0.001183,  1.755205,  5.082778 )     0.51259154
  Sum of centres and spreads (  9.805409, 16.983710, 56.255788 )     8.84277354
 
   4550    -0.623E-06     0.0002421874        8.8427637113     127.07  <-- CONV
        O_D=      0.0175546 O_OD=      1.6110146 O_TOT=      8.8427637 <-- SPRD
 Delta: O_D=  0.6306235E-07 O_OD= -0.6857747E-06 O_TOT= -0.6227124E-06 <-- DLTA
 ------------------------------------------------------------------------------
 Cycle:   4600
  WF centre and spread    1  (  0.934381,  1.954758,  1.654326 )     0.51582641
  WF centre and spread    2  (  1.218969,  2.119075,  2.239535 )     0.67083178
  WF centre and spread    3  (  1.522062,  1.953716,  1.669028 )     0.50946891
  WF centre and spread    4  (  1.227320,  2.464222,  1.669011 )     0.50947539
  WF centre and spread    5  ( -0.293682,  0.169587,  5.369550 )     0.51230437
  WF centre and spread    6  ( -0.001173,  0.000709,  4.792280 )     0.67093796
  WF centre and spread    7  (  0.294584,  0.169767,  5.366977 )     0.51118077
  WF centre and spread    8  (  0.000296, -0.339942,  5.366973 )     0.51118398
  WF centre and spread    9  (  1.518957,  0.876955,  1.953210 )     0.51428206
  WF centre and spread   10  (  1.225985,  0.707808,  1.372486 )     0.67349605
  WF centre and spread   11  (  0.932174,  0.876999,  1.952537 )     0.51397731
  WF centre and spread   12  (  1.225604,  0.368762,  1.952535 )     0.51397594
  WF centre and spread   13  (  0.291633,  1.246944,  5.073180 )     0.51673436
  WF centre and spread   14  (  0.004109,  1.412934,  5.659469 )     0.67353259
  WF centre and spread   15  ( -0.294767,  1.246340,  5.082337 )     0.51277469
  WF centre and spread   16  ( -0.001045,  1.755075,  5.082355 )     0.51276860
  Sum of centres and spreads (  9.805409, 16.983709, 56.255789 )     8.84275117
 
   4600    -0.782E-06     0.0002603898        8.8427413483     128.01  <-- CONV
        O_D=      0.0175552 O_OD=      1.6109917 O_TOT=      8.8427413 <-- SPRD
 Delta: O_D=  0.5391263E-07 O_OD= -0.8360860E-06 O_TOT= -0.7821734E-06 <-- DLTA
 ------------------------------------------------------------------------------

 Writing checkpoint file C.chk... done

 Cycle:   4650
  WF centre and spread    1  (  0.934126,  1.954610,  1.655161 )     0.51545280
  WF centre and spread    2  (  1.219546,  2.119408,  2.239557 )     0.67084179
  WF centre and spread    3  (  1.521879,  1.953663,  1.668599 )     0.50964601
  WF centre and spread    4  (  1.227182,  2.464090,  1.668582 )     0.50965235
  WF centre and spread    5  ( -0.293727,  0.169613,  5.369396 )     0.51223667
  WF centre and spread    6  ( -0.001067,  0.000648,  4.792280 )     0.67093830
  WF centre and spread    7  (  0.294549,  0.169777,  5.367055 )     0.51121441
  WF centre and spread    8  (  0.000270, -0.339917,  5.367050 )     0.51121731
  WF centre and spread    9  (  1.518969,  0.876962,  1.953167 )     0.51426284
  WF centre and spread   10  (  1.225955,  0.707791,  1.372486 )     0.67349614
  WF centre and spread   11  (  0.932184,  0.877002,  1.952559 )     0.51398729
  WF centre and spread   12  (  1.225611,  0.368769,  1.952556 )     0.51398526
  WF centre and spread   13  (  0.291788,  1.246855,  5.073709 )     0.51650096
  WF centre and spread   14  (  0.003750,  1.413141,  5.659478 )     0.67353656
  WF centre and spread   15  ( -0.294651,  1.246305,  5.082068 )     0.51288770
  WF centre and spread   16  ( -0.000956,  1.754992,  5.082087 )     0.51288128
  Sum of centres and spreads (  9.805409, 16.983709, 56.255789 )     8.84273769
 
   4650    -0.690E-07     0.0002234191        8.8427278662     129.09  <-- CONV
        O_D=      0.0175555 O_OD=      1.6109779 O_TOT=      8.8427279 <-- SPRD
 Delta: O_D= -0.2879902E-07 O_OD= -0.4016597E-07 O_TOT= -0.6896498E-07 <-- DLTA
 ------------------------------------------------------------------------------
 Cycle:   4700
  WF centre and spread    1  (  0.933912,  1.954487,  1.655863 )     0.51514039
  WF centre and spread    2  (  1.220030,  2.119687,  2.239574 )     0.67084929
  WF centre and spread    3  (  1.521724,  1.953618,  1.668240 )     0.50979486
  WF centre and spread    4  (  1.227066,  2.463979,  1.668222 )     0.50980128
  WF centre and spread    5  ( -0.293764,  0.169635,  5.369267 )     0.51218029
  WF centre and spread    6  ( -0.000978,  0.000597,  4.792279 )     0.67093855
  WF centre and spread    7  (  0.294520,  0.169785,  5.367120 )     0.51124244
  WF centre and spread    8  (  0.000248, -0.339895,  5.367115 )     0.51124524
  WF centre and spread    9  (  1.518980,  0.876968,  1.953131 )     0.51424686
  WF centre and spread   10  (  1.225931,  0.707778,  1.372486 )     0.67349617
  WF centre and spread   11  (  0.932192,  0.877004,  1.952577 )     0.51399554
  WF centre and spread   12  (  1.225617,  0.368775,  1.952574 )     0.51399316
  WF centre and spread   13  (  0.291917,  1.246780,  5.074152 )     0.51630611
  WF centre and spread   14  (  0.003450,  1.413314,  5.659484 )     0.67353943
  WF centre and spread   15  ( -0.294553,  1.246276,  5.081843 )     0.51298237
  WF centre and spread   16  ( -0.000882,  1.754923,  5.081862 )     0.51297584
  Sum of centres and spreads (  9.805409, 16.983709, 56.255789 )     8.84272782
 
   4700    -0.100E-06     0.0001986706        8.8427179904     130.01  <-- CONV
        O_D=      0.0175558 O_OD=      1.6109677 O_TOT=      8.8427180 <-- SPRD
 Delta: O_D= -0.8983921E-08 O_OD= -0.9109731E-07 O_TOT= -0.1000812E-06 <-- DLTA
 ------------------------------------------------------------------------------

 Writing checkpoint file C.chk... done

 Cycle:   4750
  WF centre and spread    1  (  0.933657,  1.954339,  1.656706 )     0.51476658
  WF centre and spread    2  (  1.220611,  2.120023,  2.239592 )     0.67085740
  WF centre and spread    3  (  1.521538,  1.953564,  1.667809 )     0.50997374
  WF centre and spread    4  (  1.226926,  2.463844,  1.667792 )     0.50998027
  WF centre and spread    5  ( -0.293809,  0.169661,  5.369113 )     0.51211315
  WF centre and spread    6  ( -0.000872,  0.000536,  4.792279 )     0.67093880
  WF centre and spread    7  (  0.294485,  0.169795,  5.367197 )     0.51127585
  WF centre and spread    8  (  0.000222, -0.339870,  5.367192 )     0.51127854
  WF centre and spread    9  (  1.518992,  0.876974,  1.953089 )     0.51422792
  WF centre and spread   10  (  1.225902,  0.707762,  1.372486 )     0.67349619
  WF centre and spread   11  (  0.932202,  0.877007,  1.952599 )     0.51400533
  WF centre and spread   12  (  1.225625,  0.368782,  1.952594 )     0.51400251
  WF centre and spread   13  (  0.292070,  1.246691,  5.074683 )     0.51607328
  WF centre and spread   14  (  0.003090,  1.413522,  5.659491 )     0.67354254
  WF centre and spread   15  ( -0.294436,  1.246241,  5.081575 )     0.51309578
  WF centre and spread   16  ( -0.000793,  1.754839,  5.081593 )     0.51308912
  Sum of centres and spreads (  9.805409, 16.983709, 56.255790 )     8.84271700
 
   4750    -0.209E-06     0.0001007817        8.8427071724     131.09  <-- CONV
        O_D=      0.0175561 O_OD=      1.6109566 O_TOT=      8.8427072 <-- SPRD
 Delta: O_D=  0.6587301E-08 O_OD= -0.2156648E-06 O_TOT= -0.2090775E-06 <-- DLTA
 ------------------------------------------------------------------------------
 Cycle:   4800
  WF centre and spread    1  (  0.933471,  1.954232,  1.657324 )     0.51449351
  WF centre and spread    2  (  1.221037,  2.120268,  2.239604 )     0.67086277
  WF centre and spread    3  (  1.521401,  1.953524,  1.667495 )     0.51010497
  WF centre and spread    4  (  1.226823,  2.463746,  1.667477 )     0.51011151
  WF centre and spread    5  ( -0.293841,  0.169679,  5.369001 )     0.51206432
  WF centre and spread    6  ( -0.000796,  0.000492,  4.792278 )     0.67093903
  WF centre and spread    7  (  0.294459,  0.169802,  5.367254 )     0.51130015
  WF centre and spread    8  (  0.000203, -0.339852,  5.367248 )     0.51130275
  WF centre and spread    9  (  1.519000,  0.876979,  1.953059 )     0.51421420
  WF centre and spread   10  (  1.225881,  0.707750,  1.372486 )     0.67349621
  WF centre and spread   11  (  0.932209,  0.877008,  1.952614 )     0.51401239
  WF centre and spread   12  (  1.225630,  0.368786,  1.952609 )     0.51400929
  WF centre and spread   13  (  0.292182,  1.246627,  5.075070 )     0.51590345
  WF centre and spread   14  (  0.002827,  1.413674,  5.659496 )     0.67354458
  WF centre and spread   15  ( -0.294351,  1.246215,  5.081378 )     0.51317873
  WF centre and spread   16  ( -0.000727,  1.754778,  5.081397 )     0.51317194
  Sum of centres and spreads (  9.805408, 16.983709, 56.255790 )     8.84270980
 
   4800    -0.171E-06     0.0003339157        8.8426999754     132.02  <-- CONV
        O_D=      0.0175563 O_OD=      1.6109492 O_TOT=      8.8427000 <-- SPRD
 Delta: O_D= -0.5506135E-08 O_OD= -0.1651135E-06 O_TOT= -0.1706196E-06 <-- DLTA
 ------------------------------------------------------------------------------

 Writing checkpoint file C.chk... done

 Cycle:   4850
  WF centre and spread    1  (  0.933249,  1.954104,  1.658064 )     0.51416716
  WF centre and spread    2  (  1.221546,  2.120563,  2.239617 )     0.67086866
  WF centre and spread    3  (  1.521237,  1.953477,  1.667118 )     0.51026229
  WF centre and spread    4  (  1.226700,  2.463627,  1.667100 )     0.51026903
  WF centre and spread    5  ( -0.293880,  0.169702,  5.368868 )     0.51200621
  WF centre and spread    6  ( -0.000704,  0.000439,  4.792278 )     0.67093921
  WF centre and spread    7  (  0.294429,  0.169811,  5.367321 )     0.51132907
  WF centre and spread    8  (  0.000180, -0.339830,  5.367315 )     0.51133162
  WF centre and spread    9  (  1.519011,  0.876985,  1.953023 )     0.51419793
  WF centre and spread   10  (  1.225857,  0.707736,  1.372486 )     0.67349626
  WF centre and spread   11  (  0.932217,  0.877011,  1.952633 )     0.51402071
  WF centre and spread   12  (  1.225636,  0.368792,  1.952627 )     0.51401731
  WF centre and spread   13  (  0.292316,  1.246550,  5.075534 )     0.51570070
  WF centre and spread   14  (  0.002512,  1.413855,  5.659501 )     0.67354684
  WF centre and spread   15  ( -0.294248,  1.246184,  5.081144 )     0.51327795
  WF centre and spread   16  ( -0.000649,  1.754704,  5.081163 )     0.51327108
  Sum of centres and spreads (  9.805408, 16.983709, 56.255790 )     8.84270203
 
   4850    -0.232E-06     0.0003954785        8.8426922050     133.11  <-- CONV
        O_D=      0.0175566 O_OD=      1.6109412 O_TOT=      8.8426922 <-- SPRD
 Delta: O_D= -0.1157614E-07 O_OD= -0.2201687E-06 O_TOT= -0.2317448E-06 <-- DLTA
 ------------------------------------------------------------------------------
 Final State
  WF centre and spread    1  (  0.933249,  1.954104,  1.658064 )     0.51416716
  WF centre and spread    2  (  1.221546,  2.120563,  2.239617 )     0.67086866
  WF centre and spread    3  (  1.521237,  1.953477,  1.667118 )     0.51026229
  WF centre and spread    4  (  1.226700,  2.463627,  1.667100 )     0.51026903
  WF centre and spread    5  ( -0.293880,  0.169702,  5.368868 )     0.51200621
  WF centre and spread    6  ( -0.000704,  0.000439,  4.792278 )     0.67093921
  WF centre and spread    7  (  0.294429,  0.169811,  5.367321 )     0.51132907
  WF centre and spread    8  (  0.000180, -0.339830,  5.367315 )     0.51133162
  WF centre and spread    9  (  1.519011,  0.876985,  1.953023 )     0.51419793
  WF centre and spread   10  (  1.225857,  0.707736,  1.372486 )     0.67349626
  WF centre and spread   11  (  0.932217,  0.877011,  1.952633 )     0.51402071
  WF centre and spread   12  (  1.225636,  0.368792,  1.952627 )     0.51401731
  WF centre and spread   13  (  0.292316,  1.246550,  5.075534 )     0.51570070
  WF centre and spread   14  (  0.002512,  1.413855,  5.659501 )     0.67354684
  WF centre and spread   15  ( -0.294248,  1.246184,  5.081144 )     0.51327795
  WF centre and spread   16  ( -0.000649,  1.754704,  5.081163 )     0.51327108
  Sum of centres and spreads (  9.805408, 16.983709, 56.255790 )     8.84270203
 
         Spreads (Ang^2)       Omega I      =     7.214194451
        ================       Omega D      =     0.017556560
                               Omega OD     =     1.610941194
    Final Spread (Ang^2)       Omega Total  =     8.842692205
 ------------------------------------------------------------------------------
 Time for wannierise           92.921 (sec)

 Writing checkpoint file C.chk... done

 *---------------------------------------------------------------------------*
 |                               PLOTTING                                    |
 *---------------------------------------------------------------------------*
 
 
 Calculating interpolated band-structure
 
 Time to calculate interpolated band structure      10.601 (sec)
 
 Time for plotting            687.029 (sec)
 Total Execution Time         822.792 (sec)

 *===========================================================================*
 |                             TIMING INFORMATION                            |
 *===========================================================================*
 |    Tag                                                Ncalls      Time (s)|
 |---------------------------------------------------------------------------|
 |kmesh: get                                        :         1         0.645|
 |overlap: allocate                                 :         1         0.003|
 |overlap: read                                     :         1         9.269|
 |dis: main                                         :         1        32.750|
 |wann: main                                        :         1        92.921|
 |plot: main                                        :         1       687.029|
 *---------------------------------------------------------------------------*
 
 All done: wannier90 exiting
