
     Program PWSCF v.7.1 starts on 17Mar2024 at 21:42:35 

     This program is part of the open-source Quantum ESPRESSO suite
     for quantum simulation of materials; please cite
         "P. Giannozzi et al., J. Phys.:Condens. Matter 21 395502 (2009);
         "P. Giannozzi et al., J. Phys.:Condens. Matter 29 465901 (2017);
         "P. Giannozzi et al., J. Chem. Phys. 152 154105 (2020);
          URL http://www.quantum-espresso.org", 
     in publications or presentations arising from this work. More details at
     http://www.quantum-espresso.org/quote

     Parallel version (MPI), running on    32 processors

     MPI processes distributed on     1 nodes
     182281 MiB available memory on the printing compute node when the environment starts
 
     Waiting for input...
     Reading input from standard input

     Current dimensions of program PWSCF are:
     Max number of different atomic species (ntypx) = 10
     Max number of k-points (npk) =  40000
     Max angular momentum in pseudopotentials (lmaxx) =  4

     Atomic positions and unit cell read from directory:
     ./C.save/
     Atomic positions from file used, from input discarded
 
     file C.pbe-mt_fhi.UPF: wavefunction(s)  4f renormalized
     Message from routine setup:
     no reason to have ecutrho>4*ecutwfc
 
     R & G space division:  proc/nbgrp/npool/nimage =      32
     Subspace diagonalization in iterative solution of the eigenvalue problem:
     a serial algorithm will be used

 
     Parallelization info
     --------------------
     sticks:   dense  smooth     PW     G-vecs:    dense   smooth      PW
     Min          15      13      5                  815      593     161
     Max          16      14      6                  834      600     172
     Sum         511     421    169                26543    19065    5229
 
     Using Slab Decomposition
 


     bravais-lattice index     =            4
     lattice parameter (alat)  =       4.6324  a.u.
     unit-cell volume          =     239.9523 (a.u.)^3
     number of atoms/cell      =            4
     number of atomic types    =            1
     number of electrons       =        16.00
     number of Kohn-Sham states=           32
     kinetic-energy cutoff     =      70.0000  Ry
     charge density cutoff     =     350.0000  Ry
     Exchange-correlation= PBE
                           (   1   4   3   4   0   0   0)

     celldm(1)=   4.632450  celldm(2)=   0.000000  celldm(3)=   2.787162
     celldm(4)=   0.000000  celldm(5)=   0.000000  celldm(6)=   0.000000

     crystal axes: (cart. coord. in units of alat)
               a(1) = (   1.000000   0.000000   0.000000 )  
               a(2) = (  -0.500000   0.866025   0.000000 )  
               a(3) = (   0.000000   0.000000   2.787162 )  

     reciprocal axes: (cart. coord. in units 2 pi/alat)
               b(1) = (  1.000000  0.577350  0.000000 )  
               b(2) = (  0.000000  1.154701  0.000000 )  
               b(3) = (  0.000000  0.000000  0.358788 )  


     PseudoPot. # 1 for C  read from file:
     ./C.pbe-mt_fhi.UPF
     MD5 check sum: 00130a8783ed0773c2b87a3ff8dd6360
     Pseudo is Norm-conserving, Zval =  4.0
     Generated using FHI98PP, converted with fhi2upf.x v.5.0.2
     Using radial grid of  461 points,  3 beta functions with: 
                l(1) =   0
                l(2) =   1
                l(3) =   3

     atomic species   valence    mass     pseudopotential
        C              4.00    12.01100     C ( 1.00)

     No symmetry found


                                    s                        frac. trans.

      isym =  1     identity                                     

 cryst.   s( 1) = (     1          0          0      )
                  (     0          1          0      )
                  (     0          0          1      )

 cart.    s( 1) = (  1.0000000  0.0000000  0.0000000 )
                  (  0.0000000  1.0000000  0.0000000 )
                  (  0.0000000  0.0000000  1.0000000 )


     point group C_1 (1)    
     there are  1 classes
     the character table:

       E    
A      1.00

     the symmetry operations in each class and the name of the first element:

     E        1
          identity                                               

   Cartesian axes

     site n.     atom                  positions (alat units)
         1           C   tau(   1) = (   0.4999957   0.8660172   0.7374691  )
         2           C   tau(   2) = (   0.0000043   0.0000135   2.1310894  )
         3           C   tau(   3) = (   0.4999944   0.2886654   0.7374813  )
         4           C   tau(   4) = (  -0.0000087   0.5773547   2.1311019  )

   Crystallographic axes

     site n.     atom                  positions (cryst. coord.)
         1           C   tau(   1) = (  0.9999909  0.9999905  0.2645950  )
         2           C   tau(   2) = (  0.0000121  0.0000156  0.7646091  )
         3           C   tau(   3) = (  0.6666554  0.3333221  0.2645994  )
         4           C   tau(   4) = (  0.3333272  0.6666718  0.7646136  )

     number of k points=  1536  Gaussian smearing, width (Ry)=  0.0200
                       cart. coord. in units 2pi/alat
        k(    1) = (   0.0000000   0.0000000   0.0000000), wk =   0.0013021
        k(    2) = (   0.0000000   0.0000000   0.0597980), wk =   0.0013021
        k(    3) = (   0.0000000   0.0000000   0.1195960), wk =   0.0013021
        k(    4) = (   0.0000000   0.0000000   0.1793940), wk =   0.0013021
        k(    5) = (   0.0000000   0.0000000   0.2391919), wk =   0.0013021
        k(    6) = (   0.0000000   0.0000000   0.2989899), wk =   0.0013021
        k(    7) = (   0.0000000   0.0721688   0.0000000), wk =   0.0013021
        k(    8) = (   0.0000000   0.0721688   0.0597980), wk =   0.0013021
        k(    9) = (   0.0000000   0.0721688   0.1195960), wk =   0.0013021
        k(   10) = (   0.0000000   0.0721688   0.1793940), wk =   0.0013021
        k(   11) = (   0.0000000   0.0721688   0.2391919), wk =   0.0013021
        k(   12) = (   0.0000000   0.0721688   0.2989899), wk =   0.0013021
        k(   13) = (   0.0000000   0.1443376   0.0000000), wk =   0.0013021
        k(   14) = (   0.0000000   0.1443376   0.0597980), wk =   0.0013021
        k(   15) = (   0.0000000   0.1443376   0.1195960), wk =   0.0013021
        k(   16) = (   0.0000000   0.1443376   0.1793940), wk =   0.0013021
        k(   17) = (   0.0000000   0.1443376   0.2391919), wk =   0.0013021
        k(   18) = (   0.0000000   0.1443376   0.2989899), wk =   0.0013021
        k(   19) = (   0.0000000   0.2165064   0.0000000), wk =   0.0013021
        k(   20) = (   0.0000000   0.2165064   0.0597980), wk =   0.0013021
        k(   21) = (   0.0000000   0.2165064   0.1195960), wk =   0.0013021
        k(   22) = (   0.0000000   0.2165064   0.1793940), wk =   0.0013021
        k(   23) = (   0.0000000   0.2165064   0.2391919), wk =   0.0013021
        k(   24) = (   0.0000000   0.2165064   0.2989899), wk =   0.0013021
        k(   25) = (   0.0000000   0.2886751   0.0000000), wk =   0.0013021
        k(   26) = (   0.0000000   0.2886751   0.0597980), wk =   0.0013021
        k(   27) = (   0.0000000   0.2886751   0.1195960), wk =   0.0013021
        k(   28) = (   0.0000000   0.2886751   0.1793940), wk =   0.0013021
        k(   29) = (   0.0000000   0.2886751   0.2391919), wk =   0.0013021
        k(   30) = (   0.0000000   0.2886751   0.2989899), wk =   0.0013021
        k(   31) = (   0.0000000   0.3608439   0.0000000), wk =   0.0013021
        k(   32) = (   0.0000000   0.3608439   0.0597980), wk =   0.0013021
        k(   33) = (   0.0000000   0.3608439   0.1195960), wk =   0.0013021
        k(   34) = (   0.0000000   0.3608439   0.1793940), wk =   0.0013021
        k(   35) = (   0.0000000   0.3608439   0.2391919), wk =   0.0013021
        k(   36) = (   0.0000000   0.3608439   0.2989899), wk =   0.0013021
        k(   37) = (   0.0000000   0.4330127   0.0000000), wk =   0.0013021
        k(   38) = (   0.0000000   0.4330127   0.0597980), wk =   0.0013021
        k(   39) = (   0.0000000   0.4330127   0.1195960), wk =   0.0013021
        k(   40) = (   0.0000000   0.4330127   0.1793940), wk =   0.0013021
        k(   41) = (   0.0000000   0.4330127   0.2391919), wk =   0.0013021
        k(   42) = (   0.0000000   0.4330127   0.2989899), wk =   0.0013021
        k(   43) = (   0.0000000   0.5051815   0.0000000), wk =   0.0013021
        k(   44) = (   0.0000000   0.5051815   0.0597980), wk =   0.0013021
        k(   45) = (   0.0000000   0.5051815   0.1195960), wk =   0.0013021
        k(   46) = (   0.0000000   0.5051815   0.1793940), wk =   0.0013021
        k(   47) = (   0.0000000   0.5051815   0.2391919), wk =   0.0013021
        k(   48) = (   0.0000000   0.5051815   0.2989899), wk =   0.0013021
        k(   49) = (   0.0000000   0.5773503   0.0000000), wk =   0.0013021
        k(   50) = (   0.0000000   0.5773503   0.0597980), wk =   0.0013021
        k(   51) = (   0.0000000   0.5773503   0.1195960), wk =   0.0013021
        k(   52) = (   0.0000000   0.5773503   0.1793940), wk =   0.0013021
        k(   53) = (   0.0000000   0.5773503   0.2391919), wk =   0.0013021
        k(   54) = (   0.0000000   0.5773503   0.2989899), wk =   0.0013021
        k(   55) = (   0.0000000   0.6495191   0.0000000), wk =   0.0013021
        k(   56) = (   0.0000000   0.6495191   0.0597980), wk =   0.0013021
        k(   57) = (   0.0000000   0.6495191   0.1195960), wk =   0.0013021
        k(   58) = (   0.0000000   0.6495191   0.1793940), wk =   0.0013021
        k(   59) = (   0.0000000   0.6495191   0.2391919), wk =   0.0013021
        k(   60) = (   0.0000000   0.6495191   0.2989899), wk =   0.0013021
        k(   61) = (   0.0000000   0.7216878   0.0000000), wk =   0.0013021
        k(   62) = (   0.0000000   0.7216878   0.0597980), wk =   0.0013021
        k(   63) = (   0.0000000   0.7216878   0.1195960), wk =   0.0013021
        k(   64) = (   0.0000000   0.7216878   0.1793940), wk =   0.0013021
        k(   65) = (   0.0000000   0.7216878   0.2391919), wk =   0.0013021
        k(   66) = (   0.0000000   0.7216878   0.2989899), wk =   0.0013021
        k(   67) = (   0.0000000   0.7938566   0.0000000), wk =   0.0013021
        k(   68) = (   0.0000000   0.7938566   0.0597980), wk =   0.0013021
        k(   69) = (   0.0000000   0.7938566   0.1195960), wk =   0.0013021
        k(   70) = (   0.0000000   0.7938566   0.1793940), wk =   0.0013021
        k(   71) = (   0.0000000   0.7938566   0.2391919), wk =   0.0013021
        k(   72) = (   0.0000000   0.7938566   0.2989899), wk =   0.0013021
        k(   73) = (   0.0000000   0.8660254   0.0000000), wk =   0.0013021
        k(   74) = (   0.0000000   0.8660254   0.0597980), wk =   0.0013021
        k(   75) = (   0.0000000   0.8660254   0.1195960), wk =   0.0013021
        k(   76) = (   0.0000000   0.8660254   0.1793940), wk =   0.0013021
        k(   77) = (   0.0000000   0.8660254   0.2391919), wk =   0.0013021
        k(   78) = (   0.0000000   0.8660254   0.2989899), wk =   0.0013021
        k(   79) = (   0.0000000   0.9381942   0.0000000), wk =   0.0013021
        k(   80) = (   0.0000000   0.9381942   0.0597980), wk =   0.0013021
        k(   81) = (   0.0000000   0.9381942   0.1195960), wk =   0.0013021
        k(   82) = (   0.0000000   0.9381942   0.1793940), wk =   0.0013021
        k(   83) = (   0.0000000   0.9381942   0.2391919), wk =   0.0013021
        k(   84) = (   0.0000000   0.9381942   0.2989899), wk =   0.0013021
        k(   85) = (   0.0000000   1.0103630   0.0000000), wk =   0.0013021
        k(   86) = (   0.0000000   1.0103630   0.0597980), wk =   0.0013021
        k(   87) = (   0.0000000   1.0103630   0.1195960), wk =   0.0013021
        k(   88) = (   0.0000000   1.0103630   0.1793940), wk =   0.0013021
        k(   89) = (   0.0000000   1.0103630   0.2391919), wk =   0.0013021
        k(   90) = (   0.0000000   1.0103630   0.2989899), wk =   0.0013021
        k(   91) = (   0.0000000   1.0825318   0.0000000), wk =   0.0013021
        k(   92) = (   0.0000000   1.0825318   0.0597980), wk =   0.0013021
        k(   93) = (   0.0000000   1.0825318   0.1195960), wk =   0.0013021
        k(   94) = (   0.0000000   1.0825318   0.1793940), wk =   0.0013021
        k(   95) = (   0.0000000   1.0825318   0.2391919), wk =   0.0013021
        k(   96) = (   0.0000000   1.0825318   0.2989899), wk =   0.0013021
        k(   97) = (   0.0625000   0.0360844   0.0000000), wk =   0.0013021
        k(   98) = (   0.0625000   0.0360844   0.0597980), wk =   0.0013021
        k(   99) = (   0.0625000   0.0360844   0.1195960), wk =   0.0013021
        k(  100) = (   0.0625000   0.0360844   0.1793940), wk =   0.0013021
        k(  101) = (   0.0625000   0.0360844   0.2391919), wk =   0.0013021
        k(  102) = (   0.0625000   0.0360844   0.2989899), wk =   0.0013021
        k(  103) = (   0.0625000   0.1082532   0.0000000), wk =   0.0013021
        k(  104) = (   0.0625000   0.1082532   0.0597980), wk =   0.0013021
        k(  105) = (   0.0625000   0.1082532   0.1195960), wk =   0.0013021
        k(  106) = (   0.0625000   0.1082532   0.1793940), wk =   0.0013021
        k(  107) = (   0.0625000   0.1082532   0.2391919), wk =   0.0013021
        k(  108) = (   0.0625000   0.1082532   0.2989899), wk =   0.0013021
        k(  109) = (   0.0625000   0.1804220   0.0000000), wk =   0.0013021
        k(  110) = (   0.0625000   0.1804220   0.0597980), wk =   0.0013021
        k(  111) = (   0.0625000   0.1804220   0.1195960), wk =   0.0013021
        k(  112) = (   0.0625000   0.1804220   0.1793940), wk =   0.0013021
        k(  113) = (   0.0625000   0.1804220   0.2391919), wk =   0.0013021
        k(  114) = (   0.0625000   0.1804220   0.2989899), wk =   0.0013021
        k(  115) = (   0.0625000   0.2525907   0.0000000), wk =   0.0013021
        k(  116) = (   0.0625000   0.2525907   0.0597980), wk =   0.0013021
        k(  117) = (   0.0625000   0.2525907   0.1195960), wk =   0.0013021
        k(  118) = (   0.0625000   0.2525907   0.1793940), wk =   0.0013021
        k(  119) = (   0.0625000   0.2525907   0.2391919), wk =   0.0013021
        k(  120) = (   0.0625000   0.2525907   0.2989899), wk =   0.0013021
        k(  121) = (   0.0625000   0.3247595   0.0000000), wk =   0.0013021
        k(  122) = (   0.0625000   0.3247595   0.0597980), wk =   0.0013021
        k(  123) = (   0.0625000   0.3247595   0.1195960), wk =   0.0013021
        k(  124) = (   0.0625000   0.3247595   0.1793940), wk =   0.0013021
        k(  125) = (   0.0625000   0.3247595   0.2391919), wk =   0.0013021
        k(  126) = (   0.0625000   0.3247595   0.2989899), wk =   0.0013021
        k(  127) = (   0.0625000   0.3969283   0.0000000), wk =   0.0013021
        k(  128) = (   0.0625000   0.3969283   0.0597980), wk =   0.0013021
        k(  129) = (   0.0625000   0.3969283   0.1195960), wk =   0.0013021
        k(  130) = (   0.0625000   0.3969283   0.1793940), wk =   0.0013021
        k(  131) = (   0.0625000   0.3969283   0.2391919), wk =   0.0013021
        k(  132) = (   0.0625000   0.3969283   0.2989899), wk =   0.0013021
        k(  133) = (   0.0625000   0.4690971   0.0000000), wk =   0.0013021
        k(  134) = (   0.0625000   0.4690971   0.0597980), wk =   0.0013021
        k(  135) = (   0.0625000   0.4690971   0.1195960), wk =   0.0013021
        k(  136) = (   0.0625000   0.4690971   0.1793940), wk =   0.0013021
        k(  137) = (   0.0625000   0.4690971   0.2391919), wk =   0.0013021
        k(  138) = (   0.0625000   0.4690971   0.2989899), wk =   0.0013021
        k(  139) = (   0.0625000   0.5412659   0.0000000), wk =   0.0013021
        k(  140) = (   0.0625000   0.5412659   0.0597980), wk =   0.0013021
        k(  141) = (   0.0625000   0.5412659   0.1195960), wk =   0.0013021
        k(  142) = (   0.0625000   0.5412659   0.1793940), wk =   0.0013021
        k(  143) = (   0.0625000   0.5412659   0.2391919), wk =   0.0013021
        k(  144) = (   0.0625000   0.5412659   0.2989899), wk =   0.0013021
        k(  145) = (   0.0625000   0.6134347   0.0000000), wk =   0.0013021
        k(  146) = (   0.0625000   0.6134347   0.0597980), wk =   0.0013021
        k(  147) = (   0.0625000   0.6134347   0.1195960), wk =   0.0013021
        k(  148) = (   0.0625000   0.6134347   0.1793940), wk =   0.0013021
        k(  149) = (   0.0625000   0.6134347   0.2391919), wk =   0.0013021
        k(  150) = (   0.0625000   0.6134347   0.2989899), wk =   0.0013021
        k(  151) = (   0.0625000   0.6856034   0.0000000), wk =   0.0013021
        k(  152) = (   0.0625000   0.6856034   0.0597980), wk =   0.0013021
        k(  153) = (   0.0625000   0.6856034   0.1195960), wk =   0.0013021
        k(  154) = (   0.0625000   0.6856034   0.1793940), wk =   0.0013021
        k(  155) = (   0.0625000   0.6856034   0.2391919), wk =   0.0013021
        k(  156) = (   0.0625000   0.6856034   0.2989899), wk =   0.0013021
        k(  157) = (   0.0625000   0.7577722   0.0000000), wk =   0.0013021
        k(  158) = (   0.0625000   0.7577722   0.0597980), wk =   0.0013021
        k(  159) = (   0.0625000   0.7577722   0.1195960), wk =   0.0013021
        k(  160) = (   0.0625000   0.7577722   0.1793940), wk =   0.0013021
        k(  161) = (   0.0625000   0.7577722   0.2391919), wk =   0.0013021
        k(  162) = (   0.0625000   0.7577722   0.2989899), wk =   0.0013021
        k(  163) = (   0.0625000   0.8299410   0.0000000), wk =   0.0013021
        k(  164) = (   0.0625000   0.8299410   0.0597980), wk =   0.0013021
        k(  165) = (   0.0625000   0.8299410   0.1195960), wk =   0.0013021
        k(  166) = (   0.0625000   0.8299410   0.1793940), wk =   0.0013021
        k(  167) = (   0.0625000   0.8299410   0.2391919), wk =   0.0013021
        k(  168) = (   0.0625000   0.8299410   0.2989899), wk =   0.0013021
        k(  169) = (   0.0625000   0.9021098   0.0000000), wk =   0.0013021
        k(  170) = (   0.0625000   0.9021098   0.0597980), wk =   0.0013021
        k(  171) = (   0.0625000   0.9021098   0.1195960), wk =   0.0013021
        k(  172) = (   0.0625000   0.9021098   0.1793940), wk =   0.0013021
        k(  173) = (   0.0625000   0.9021098   0.2391919), wk =   0.0013021
        k(  174) = (   0.0625000   0.9021098   0.2989899), wk =   0.0013021
        k(  175) = (   0.0625000   0.9742786   0.0000000), wk =   0.0013021
        k(  176) = (   0.0625000   0.9742786   0.0597980), wk =   0.0013021
        k(  177) = (   0.0625000   0.9742786   0.1195960), wk =   0.0013021
        k(  178) = (   0.0625000   0.9742786   0.1793940), wk =   0.0013021
        k(  179) = (   0.0625000   0.9742786   0.2391919), wk =   0.0013021
        k(  180) = (   0.0625000   0.9742786   0.2989899), wk =   0.0013021
        k(  181) = (   0.0625000   1.0464474   0.0000000), wk =   0.0013021
        k(  182) = (   0.0625000   1.0464474   0.0597980), wk =   0.0013021
        k(  183) = (   0.0625000   1.0464474   0.1195960), wk =   0.0013021
        k(  184) = (   0.0625000   1.0464474   0.1793940), wk =   0.0013021
        k(  185) = (   0.0625000   1.0464474   0.2391919), wk =   0.0013021
        k(  186) = (   0.0625000   1.0464474   0.2989899), wk =   0.0013021
        k(  187) = (   0.0625000   1.1186161   0.0000000), wk =   0.0013021
        k(  188) = (   0.0625000   1.1186161   0.0597980), wk =   0.0013021
        k(  189) = (   0.0625000   1.1186161   0.1195960), wk =   0.0013021
        k(  190) = (   0.0625000   1.1186161   0.1793940), wk =   0.0013021
        k(  191) = (   0.0625000   1.1186161   0.2391919), wk =   0.0013021
        k(  192) = (   0.0625000   1.1186161   0.2989899), wk =   0.0013021
        k(  193) = (   0.1250000   0.0721688   0.0000000), wk =   0.0013021
        k(  194) = (   0.1250000   0.0721688   0.0597980), wk =   0.0013021
        k(  195) = (   0.1250000   0.0721688   0.1195960), wk =   0.0013021
        k(  196) = (   0.1250000   0.0721688   0.1793940), wk =   0.0013021
        k(  197) = (   0.1250000   0.0721688   0.2391919), wk =   0.0013021
        k(  198) = (   0.1250000   0.0721688   0.2989899), wk =   0.0013021
        k(  199) = (   0.1250000   0.1443376   0.0000000), wk =   0.0013021
        k(  200) = (   0.1250000   0.1443376   0.0597980), wk =   0.0013021
        k(  201) = (   0.1250000   0.1443376   0.1195960), wk =   0.0013021
        k(  202) = (   0.1250000   0.1443376   0.1793940), wk =   0.0013021
        k(  203) = (   0.1250000   0.1443376   0.2391919), wk =   0.0013021
        k(  204) = (   0.1250000   0.1443376   0.2989899), wk =   0.0013021
        k(  205) = (   0.1250000   0.2165064   0.0000000), wk =   0.0013021
        k(  206) = (   0.1250000   0.2165064   0.0597980), wk =   0.0013021
        k(  207) = (   0.1250000   0.2165064   0.1195960), wk =   0.0013021
        k(  208) = (   0.1250000   0.2165064   0.1793940), wk =   0.0013021
        k(  209) = (   0.1250000   0.2165064   0.2391919), wk =   0.0013021
        k(  210) = (   0.1250000   0.2165064   0.2989899), wk =   0.0013021
        k(  211) = (   0.1250000   0.2886751   0.0000000), wk =   0.0013021
        k(  212) = (   0.1250000   0.2886751   0.0597980), wk =   0.0013021
        k(  213) = (   0.1250000   0.2886751   0.1195960), wk =   0.0013021
        k(  214) = (   0.1250000   0.2886751   0.1793940), wk =   0.0013021
        k(  215) = (   0.1250000   0.2886751   0.2391919), wk =   0.0013021
        k(  216) = (   0.1250000   0.2886751   0.2989899), wk =   0.0013021
        k(  217) = (   0.1250000   0.3608439   0.0000000), wk =   0.0013021
        k(  218) = (   0.1250000   0.3608439   0.0597980), wk =   0.0013021
        k(  219) = (   0.1250000   0.3608439   0.1195960), wk =   0.0013021
        k(  220) = (   0.1250000   0.3608439   0.1793940), wk =   0.0013021
        k(  221) = (   0.1250000   0.3608439   0.2391919), wk =   0.0013021
        k(  222) = (   0.1250000   0.3608439   0.2989899), wk =   0.0013021
        k(  223) = (   0.1250000   0.4330127   0.0000000), wk =   0.0013021
        k(  224) = (   0.1250000   0.4330127   0.0597980), wk =   0.0013021
        k(  225) = (   0.1250000   0.4330127   0.1195960), wk =   0.0013021
        k(  226) = (   0.1250000   0.4330127   0.1793940), wk =   0.0013021
        k(  227) = (   0.1250000   0.4330127   0.2391919), wk =   0.0013021
        k(  228) = (   0.1250000   0.4330127   0.2989899), wk =   0.0013021
        k(  229) = (   0.1250000   0.5051815   0.0000000), wk =   0.0013021
        k(  230) = (   0.1250000   0.5051815   0.0597980), wk =   0.0013021
        k(  231) = (   0.1250000   0.5051815   0.1195960), wk =   0.0013021
        k(  232) = (   0.1250000   0.5051815   0.1793940), wk =   0.0013021
        k(  233) = (   0.1250000   0.5051815   0.2391919), wk =   0.0013021
        k(  234) = (   0.1250000   0.5051815   0.2989899), wk =   0.0013021
        k(  235) = (   0.1250000   0.5773503   0.0000000), wk =   0.0013021
        k(  236) = (   0.1250000   0.5773503   0.0597980), wk =   0.0013021
        k(  237) = (   0.1250000   0.5773503   0.1195960), wk =   0.0013021
        k(  238) = (   0.1250000   0.5773503   0.1793940), wk =   0.0013021
        k(  239) = (   0.1250000   0.5773503   0.2391919), wk =   0.0013021
        k(  240) = (   0.1250000   0.5773503   0.2989899), wk =   0.0013021
        k(  241) = (   0.1250000   0.6495191   0.0000000), wk =   0.0013021
        k(  242) = (   0.1250000   0.6495191   0.0597980), wk =   0.0013021
        k(  243) = (   0.1250000   0.6495191   0.1195960), wk =   0.0013021
        k(  244) = (   0.1250000   0.6495191   0.1793940), wk =   0.0013021
        k(  245) = (   0.1250000   0.6495191   0.2391919), wk =   0.0013021
        k(  246) = (   0.1250000   0.6495191   0.2989899), wk =   0.0013021
        k(  247) = (   0.1250000   0.7216878   0.0000000), wk =   0.0013021
        k(  248) = (   0.1250000   0.7216878   0.0597980), wk =   0.0013021
        k(  249) = (   0.1250000   0.7216878   0.1195960), wk =   0.0013021
        k(  250) = (   0.1250000   0.7216878   0.1793940), wk =   0.0013021
        k(  251) = (   0.1250000   0.7216878   0.2391919), wk =   0.0013021
        k(  252) = (   0.1250000   0.7216878   0.2989899), wk =   0.0013021
        k(  253) = (   0.1250000   0.7938566   0.0000000), wk =   0.0013021
        k(  254) = (   0.1250000   0.7938566   0.0597980), wk =   0.0013021
        k(  255) = (   0.1250000   0.7938566   0.1195960), wk =   0.0013021
        k(  256) = (   0.1250000   0.7938566   0.1793940), wk =   0.0013021
        k(  257) = (   0.1250000   0.7938566   0.2391919), wk =   0.0013021
        k(  258) = (   0.1250000   0.7938566   0.2989899), wk =   0.0013021
        k(  259) = (   0.1250000   0.8660254   0.0000000), wk =   0.0013021
        k(  260) = (   0.1250000   0.8660254   0.0597980), wk =   0.0013021
        k(  261) = (   0.1250000   0.8660254   0.1195960), wk =   0.0013021
        k(  262) = (   0.1250000   0.8660254   0.1793940), wk =   0.0013021
        k(  263) = (   0.1250000   0.8660254   0.2391919), wk =   0.0013021
        k(  264) = (   0.1250000   0.8660254   0.2989899), wk =   0.0013021
        k(  265) = (   0.1250000   0.9381942   0.0000000), wk =   0.0013021
        k(  266) = (   0.1250000   0.9381942   0.0597980), wk =   0.0013021
        k(  267) = (   0.1250000   0.9381942   0.1195960), wk =   0.0013021
        k(  268) = (   0.1250000   0.9381942   0.1793940), wk =   0.0013021
        k(  269) = (   0.1250000   0.9381942   0.2391919), wk =   0.0013021
        k(  270) = (   0.1250000   0.9381942   0.2989899), wk =   0.0013021
        k(  271) = (   0.1250000   1.0103630   0.0000000), wk =   0.0013021
        k(  272) = (   0.1250000   1.0103630   0.0597980), wk =   0.0013021
        k(  273) = (   0.1250000   1.0103630   0.1195960), wk =   0.0013021
        k(  274) = (   0.1250000   1.0103630   0.1793940), wk =   0.0013021
        k(  275) = (   0.1250000   1.0103630   0.2391919), wk =   0.0013021
        k(  276) = (   0.1250000   1.0103630   0.2989899), wk =   0.0013021
        k(  277) = (   0.1250000   1.0825318   0.0000000), wk =   0.0013021
        k(  278) = (   0.1250000   1.0825318   0.0597980), wk =   0.0013021
        k(  279) = (   0.1250000   1.0825318   0.1195960), wk =   0.0013021
        k(  280) = (   0.1250000   1.0825318   0.1793940), wk =   0.0013021
        k(  281) = (   0.1250000   1.0825318   0.2391919), wk =   0.0013021
        k(  282) = (   0.1250000   1.0825318   0.2989899), wk =   0.0013021
        k(  283) = (   0.1250000   1.1547005   0.0000000), wk =   0.0013021
        k(  284) = (   0.1250000   1.1547005   0.0597980), wk =   0.0013021
        k(  285) = (   0.1250000   1.1547005   0.1195960), wk =   0.0013021
        k(  286) = (   0.1250000   1.1547005   0.1793940), wk =   0.0013021
        k(  287) = (   0.1250000   1.1547005   0.2391919), wk =   0.0013021
        k(  288) = (   0.1250000   1.1547005   0.2989899), wk =   0.0013021
        k(  289) = (   0.1875000   0.1082532   0.0000000), wk =   0.0013021
        k(  290) = (   0.1875000   0.1082532   0.0597980), wk =   0.0013021
        k(  291) = (   0.1875000   0.1082532   0.1195960), wk =   0.0013021
        k(  292) = (   0.1875000   0.1082532   0.1793940), wk =   0.0013021
        k(  293) = (   0.1875000   0.1082532   0.2391919), wk =   0.0013021
        k(  294) = (   0.1875000   0.1082532   0.2989899), wk =   0.0013021
        k(  295) = (   0.1875000   0.1804220   0.0000000), wk =   0.0013021
        k(  296) = (   0.1875000   0.1804220   0.0597980), wk =   0.0013021
        k(  297) = (   0.1875000   0.1804220   0.1195960), wk =   0.0013021
        k(  298) = (   0.1875000   0.1804220   0.1793940), wk =   0.0013021
        k(  299) = (   0.1875000   0.1804220   0.2391919), wk =   0.0013021
        k(  300) = (   0.1875000   0.1804220   0.2989899), wk =   0.0013021
        k(  301) = (   0.1875000   0.2525907   0.0000000), wk =   0.0013021
        k(  302) = (   0.1875000   0.2525907   0.0597980), wk =   0.0013021
        k(  303) = (   0.1875000   0.2525907   0.1195960), wk =   0.0013021
        k(  304) = (   0.1875000   0.2525907   0.1793940), wk =   0.0013021
        k(  305) = (   0.1875000   0.2525907   0.2391919), wk =   0.0013021
        k(  306) = (   0.1875000   0.2525907   0.2989899), wk =   0.0013021
        k(  307) = (   0.1875000   0.3247595   0.0000000), wk =   0.0013021
        k(  308) = (   0.1875000   0.3247595   0.0597980), wk =   0.0013021
        k(  309) = (   0.1875000   0.3247595   0.1195960), wk =   0.0013021
        k(  310) = (   0.1875000   0.3247595   0.1793940), wk =   0.0013021
        k(  311) = (   0.1875000   0.3247595   0.2391919), wk =   0.0013021
        k(  312) = (   0.1875000   0.3247595   0.2989899), wk =   0.0013021
        k(  313) = (   0.1875000   0.3969283   0.0000000), wk =   0.0013021
        k(  314) = (   0.1875000   0.3969283   0.0597980), wk =   0.0013021
        k(  315) = (   0.1875000   0.3969283   0.1195960), wk =   0.0013021
        k(  316) = (   0.1875000   0.3969283   0.1793940), wk =   0.0013021
        k(  317) = (   0.1875000   0.3969283   0.2391919), wk =   0.0013021
        k(  318) = (   0.1875000   0.3969283   0.2989899), wk =   0.0013021
        k(  319) = (   0.1875000   0.4690971   0.0000000), wk =   0.0013021
        k(  320) = (   0.1875000   0.4690971   0.0597980), wk =   0.0013021
        k(  321) = (   0.1875000   0.4690971   0.1195960), wk =   0.0013021
        k(  322) = (   0.1875000   0.4690971   0.1793940), wk =   0.0013021
        k(  323) = (   0.1875000   0.4690971   0.2391919), wk =   0.0013021
        k(  324) = (   0.1875000   0.4690971   0.2989899), wk =   0.0013021
        k(  325) = (   0.1875000   0.5412659   0.0000000), wk =   0.0013021
        k(  326) = (   0.1875000   0.5412659   0.0597980), wk =   0.0013021
        k(  327) = (   0.1875000   0.5412659   0.1195960), wk =   0.0013021
        k(  328) = (   0.1875000   0.5412659   0.1793940), wk =   0.0013021
        k(  329) = (   0.1875000   0.5412659   0.2391919), wk =   0.0013021
        k(  330) = (   0.1875000   0.5412659   0.2989899), wk =   0.0013021
        k(  331) = (   0.1875000   0.6134347   0.0000000), wk =   0.0013021
        k(  332) = (   0.1875000   0.6134347   0.0597980), wk =   0.0013021
        k(  333) = (   0.1875000   0.6134347   0.1195960), wk =   0.0013021
        k(  334) = (   0.1875000   0.6134347   0.1793940), wk =   0.0013021
        k(  335) = (   0.1875000   0.6134347   0.2391919), wk =   0.0013021
        k(  336) = (   0.1875000   0.6134347   0.2989899), wk =   0.0013021
        k(  337) = (   0.1875000   0.6856034   0.0000000), wk =   0.0013021
        k(  338) = (   0.1875000   0.6856034   0.0597980), wk =   0.0013021
        k(  339) = (   0.1875000   0.6856034   0.1195960), wk =   0.0013021
        k(  340) = (   0.1875000   0.6856034   0.1793940), wk =   0.0013021
        k(  341) = (   0.1875000   0.6856034   0.2391919), wk =   0.0013021
        k(  342) = (   0.1875000   0.6856034   0.2989899), wk =   0.0013021
        k(  343) = (   0.1875000   0.7577722   0.0000000), wk =   0.0013021
        k(  344) = (   0.1875000   0.7577722   0.0597980), wk =   0.0013021
        k(  345) = (   0.1875000   0.7577722   0.1195960), wk =   0.0013021
        k(  346) = (   0.1875000   0.7577722   0.1793940), wk =   0.0013021
        k(  347) = (   0.1875000   0.7577722   0.2391919), wk =   0.0013021
        k(  348) = (   0.1875000   0.7577722   0.2989899), wk =   0.0013021
        k(  349) = (   0.1875000   0.8299410   0.0000000), wk =   0.0013021
        k(  350) = (   0.1875000   0.8299410   0.0597980), wk =   0.0013021
        k(  351) = (   0.1875000   0.8299410   0.1195960), wk =   0.0013021
        k(  352) = (   0.1875000   0.8299410   0.1793940), wk =   0.0013021
        k(  353) = (   0.1875000   0.8299410   0.2391919), wk =   0.0013021
        k(  354) = (   0.1875000   0.8299410   0.2989899), wk =   0.0013021
        k(  355) = (   0.1875000   0.9021098   0.0000000), wk =   0.0013021
        k(  356) = (   0.1875000   0.9021098   0.0597980), wk =   0.0013021
        k(  357) = (   0.1875000   0.9021098   0.1195960), wk =   0.0013021
        k(  358) = (   0.1875000   0.9021098   0.1793940), wk =   0.0013021
        k(  359) = (   0.1875000   0.9021098   0.2391919), wk =   0.0013021
        k(  360) = (   0.1875000   0.9021098   0.2989899), wk =   0.0013021
        k(  361) = (   0.1875000   0.9742786   0.0000000), wk =   0.0013021
        k(  362) = (   0.1875000   0.9742786   0.0597980), wk =   0.0013021
        k(  363) = (   0.1875000   0.9742786   0.1195960), wk =   0.0013021
        k(  364) = (   0.1875000   0.9742786   0.1793940), wk =   0.0013021
        k(  365) = (   0.1875000   0.9742786   0.2391919), wk =   0.0013021
        k(  366) = (   0.1875000   0.9742786   0.2989899), wk =   0.0013021
        k(  367) = (   0.1875000   1.0464474   0.0000000), wk =   0.0013021
        k(  368) = (   0.1875000   1.0464474   0.0597980), wk =   0.0013021
        k(  369) = (   0.1875000   1.0464474   0.1195960), wk =   0.0013021
        k(  370) = (   0.1875000   1.0464474   0.1793940), wk =   0.0013021
        k(  371) = (   0.1875000   1.0464474   0.2391919), wk =   0.0013021
        k(  372) = (   0.1875000   1.0464474   0.2989899), wk =   0.0013021
        k(  373) = (   0.1875000   1.1186161   0.0000000), wk =   0.0013021
        k(  374) = (   0.1875000   1.1186161   0.0597980), wk =   0.0013021
        k(  375) = (   0.1875000   1.1186161   0.1195960), wk =   0.0013021
        k(  376) = (   0.1875000   1.1186161   0.1793940), wk =   0.0013021
        k(  377) = (   0.1875000   1.1186161   0.2391919), wk =   0.0013021
        k(  378) = (   0.1875000   1.1186161   0.2989899), wk =   0.0013021
        k(  379) = (   0.1875000   1.1907849   0.0000000), wk =   0.0013021
        k(  380) = (   0.1875000   1.1907849   0.0597980), wk =   0.0013021
        k(  381) = (   0.1875000   1.1907849   0.1195960), wk =   0.0013021
        k(  382) = (   0.1875000   1.1907849   0.1793940), wk =   0.0013021
        k(  383) = (   0.1875000   1.1907849   0.2391919), wk =   0.0013021
        k(  384) = (   0.1875000   1.1907849   0.2989899), wk =   0.0013021
        k(  385) = (   0.2500000   0.1443376   0.0000000), wk =   0.0013021
        k(  386) = (   0.2500000   0.1443376   0.0597980), wk =   0.0013021
        k(  387) = (   0.2500000   0.1443376   0.1195960), wk =   0.0013021
        k(  388) = (   0.2500000   0.1443376   0.1793940), wk =   0.0013021
        k(  389) = (   0.2500000   0.1443376   0.2391919), wk =   0.0013021
        k(  390) = (   0.2500000   0.1443376   0.2989899), wk =   0.0013021
        k(  391) = (   0.2500000   0.2165064   0.0000000), wk =   0.0013021
        k(  392) = (   0.2500000   0.2165064   0.0597980), wk =   0.0013021
        k(  393) = (   0.2500000   0.2165064   0.1195960), wk =   0.0013021
        k(  394) = (   0.2500000   0.2165064   0.1793940), wk =   0.0013021
        k(  395) = (   0.2500000   0.2165064   0.2391919), wk =   0.0013021
        k(  396) = (   0.2500000   0.2165064   0.2989899), wk =   0.0013021
        k(  397) = (   0.2500000   0.2886751   0.0000000), wk =   0.0013021
        k(  398) = (   0.2500000   0.2886751   0.0597980), wk =   0.0013021
        k(  399) = (   0.2500000   0.2886751   0.1195960), wk =   0.0013021
        k(  400) = (   0.2500000   0.2886751   0.1793940), wk =   0.0013021
        k(  401) = (   0.2500000   0.2886751   0.2391919), wk =   0.0013021
        k(  402) = (   0.2500000   0.2886751   0.2989899), wk =   0.0013021
        k(  403) = (   0.2500000   0.3608439   0.0000000), wk =   0.0013021
        k(  404) = (   0.2500000   0.3608439   0.0597980), wk =   0.0013021
        k(  405) = (   0.2500000   0.3608439   0.1195960), wk =   0.0013021
        k(  406) = (   0.2500000   0.3608439   0.1793940), wk =   0.0013021
        k(  407) = (   0.2500000   0.3608439   0.2391919), wk =   0.0013021
        k(  408) = (   0.2500000   0.3608439   0.2989899), wk =   0.0013021
        k(  409) = (   0.2500000   0.4330127   0.0000000), wk =   0.0013021
        k(  410) = (   0.2500000   0.4330127   0.0597980), wk =   0.0013021
        k(  411) = (   0.2500000   0.4330127   0.1195960), wk =   0.0013021
        k(  412) = (   0.2500000   0.4330127   0.1793940), wk =   0.0013021
        k(  413) = (   0.2500000   0.4330127   0.2391919), wk =   0.0013021
        k(  414) = (   0.2500000   0.4330127   0.2989899), wk =   0.0013021
        k(  415) = (   0.2500000   0.5051815   0.0000000), wk =   0.0013021
        k(  416) = (   0.2500000   0.5051815   0.0597980), wk =   0.0013021
        k(  417) = (   0.2500000   0.5051815   0.1195960), wk =   0.0013021
        k(  418) = (   0.2500000   0.5051815   0.1793940), wk =   0.0013021
        k(  419) = (   0.2500000   0.5051815   0.2391919), wk =   0.0013021
        k(  420) = (   0.2500000   0.5051815   0.2989899), wk =   0.0013021
        k(  421) = (   0.2500000   0.5773503   0.0000000), wk =   0.0013021
        k(  422) = (   0.2500000   0.5773503   0.0597980), wk =   0.0013021
        k(  423) = (   0.2500000   0.5773503   0.1195960), wk =   0.0013021
        k(  424) = (   0.2500000   0.5773503   0.1793940), wk =   0.0013021
        k(  425) = (   0.2500000   0.5773503   0.2391919), wk =   0.0013021
        k(  426) = (   0.2500000   0.5773503   0.2989899), wk =   0.0013021
        k(  427) = (   0.2500000   0.6495191   0.0000000), wk =   0.0013021
        k(  428) = (   0.2500000   0.6495191   0.0597980), wk =   0.0013021
        k(  429) = (   0.2500000   0.6495191   0.1195960), wk =   0.0013021
        k(  430) = (   0.2500000   0.6495191   0.1793940), wk =   0.0013021
        k(  431) = (   0.2500000   0.6495191   0.2391919), wk =   0.0013021
        k(  432) = (   0.2500000   0.6495191   0.2989899), wk =   0.0013021
        k(  433) = (   0.2500000   0.7216878   0.0000000), wk =   0.0013021
        k(  434) = (   0.2500000   0.7216878   0.0597980), wk =   0.0013021
        k(  435) = (   0.2500000   0.7216878   0.1195960), wk =   0.0013021
        k(  436) = (   0.2500000   0.7216878   0.1793940), wk =   0.0013021
        k(  437) = (   0.2500000   0.7216878   0.2391919), wk =   0.0013021
        k(  438) = (   0.2500000   0.7216878   0.2989899), wk =   0.0013021
        k(  439) = (   0.2500000   0.7938566   0.0000000), wk =   0.0013021
        k(  440) = (   0.2500000   0.7938566   0.0597980), wk =   0.0013021
        k(  441) = (   0.2500000   0.7938566   0.1195960), wk =   0.0013021
        k(  442) = (   0.2500000   0.7938566   0.1793940), wk =   0.0013021
        k(  443) = (   0.2500000   0.7938566   0.2391919), wk =   0.0013021
        k(  444) = (   0.2500000   0.7938566   0.2989899), wk =   0.0013021
        k(  445) = (   0.2500000   0.8660254   0.0000000), wk =   0.0013021
        k(  446) = (   0.2500000   0.8660254   0.0597980), wk =   0.0013021
        k(  447) = (   0.2500000   0.8660254   0.1195960), wk =   0.0013021
        k(  448) = (   0.2500000   0.8660254   0.1793940), wk =   0.0013021
        k(  449) = (   0.2500000   0.8660254   0.2391919), wk =   0.0013021
        k(  450) = (   0.2500000   0.8660254   0.2989899), wk =   0.0013021
        k(  451) = (   0.2500000   0.9381942   0.0000000), wk =   0.0013021
        k(  452) = (   0.2500000   0.9381942   0.0597980), wk =   0.0013021
        k(  453) = (   0.2500000   0.9381942   0.1195960), wk =   0.0013021
        k(  454) = (   0.2500000   0.9381942   0.1793940), wk =   0.0013021
        k(  455) = (   0.2500000   0.9381942   0.2391919), wk =   0.0013021
        k(  456) = (   0.2500000   0.9381942   0.2989899), wk =   0.0013021
        k(  457) = (   0.2500000   1.0103630   0.0000000), wk =   0.0013021
        k(  458) = (   0.2500000   1.0103630   0.0597980), wk =   0.0013021
        k(  459) = (   0.2500000   1.0103630   0.1195960), wk =   0.0013021
        k(  460) = (   0.2500000   1.0103630   0.1793940), wk =   0.0013021
        k(  461) = (   0.2500000   1.0103630   0.2391919), wk =   0.0013021
        k(  462) = (   0.2500000   1.0103630   0.2989899), wk =   0.0013021
        k(  463) = (   0.2500000   1.0825318   0.0000000), wk =   0.0013021
        k(  464) = (   0.2500000   1.0825318   0.0597980), wk =   0.0013021
        k(  465) = (   0.2500000   1.0825318   0.1195960), wk =   0.0013021
        k(  466) = (   0.2500000   1.0825318   0.1793940), wk =   0.0013021
        k(  467) = (   0.2500000   1.0825318   0.2391919), wk =   0.0013021
        k(  468) = (   0.2500000   1.0825318   0.2989899), wk =   0.0013021
        k(  469) = (   0.2500000   1.1547005   0.0000000), wk =   0.0013021
        k(  470) = (   0.2500000   1.1547005   0.0597980), wk =   0.0013021
        k(  471) = (   0.2500000   1.1547005   0.1195960), wk =   0.0013021
        k(  472) = (   0.2500000   1.1547005   0.1793940), wk =   0.0013021
        k(  473) = (   0.2500000   1.1547005   0.2391919), wk =   0.0013021
        k(  474) = (   0.2500000   1.1547005   0.2989899), wk =   0.0013021
        k(  475) = (   0.2500000   1.2268693   0.0000000), wk =   0.0013021
        k(  476) = (   0.2500000   1.2268693   0.0597980), wk =   0.0013021
        k(  477) = (   0.2500000   1.2268693   0.1195960), wk =   0.0013021
        k(  478) = (   0.2500000   1.2268693   0.1793940), wk =   0.0013021
        k(  479) = (   0.2500000   1.2268693   0.2391919), wk =   0.0013021
        k(  480) = (   0.2500000   1.2268693   0.2989899), wk =   0.0013021
        k(  481) = (   0.3125000   0.1804220   0.0000000), wk =   0.0013021
        k(  482) = (   0.3125000   0.1804220   0.0597980), wk =   0.0013021
        k(  483) = (   0.3125000   0.1804220   0.1195960), wk =   0.0013021
        k(  484) = (   0.3125000   0.1804220   0.1793940), wk =   0.0013021
        k(  485) = (   0.3125000   0.1804220   0.2391919), wk =   0.0013021
        k(  486) = (   0.3125000   0.1804220   0.2989899), wk =   0.0013021
        k(  487) = (   0.3125000   0.2525907   0.0000000), wk =   0.0013021
        k(  488) = (   0.3125000   0.2525907   0.0597980), wk =   0.0013021
        k(  489) = (   0.3125000   0.2525907   0.1195960), wk =   0.0013021
        k(  490) = (   0.3125000   0.2525907   0.1793940), wk =   0.0013021
        k(  491) = (   0.3125000   0.2525907   0.2391919), wk =   0.0013021
        k(  492) = (   0.3125000   0.2525907   0.2989899), wk =   0.0013021
        k(  493) = (   0.3125000   0.3247595   0.0000000), wk =   0.0013021
        k(  494) = (   0.3125000   0.3247595   0.0597980), wk =   0.0013021
        k(  495) = (   0.3125000   0.3247595   0.1195960), wk =   0.0013021
        k(  496) = (   0.3125000   0.3247595   0.1793940), wk =   0.0013021
        k(  497) = (   0.3125000   0.3247595   0.2391919), wk =   0.0013021
        k(  498) = (   0.3125000   0.3247595   0.2989899), wk =   0.0013021
        k(  499) = (   0.3125000   0.3969283   0.0000000), wk =   0.0013021
        k(  500) = (   0.3125000   0.3969283   0.0597980), wk =   0.0013021
        k(  501) = (   0.3125000   0.3969283   0.1195960), wk =   0.0013021
        k(  502) = (   0.3125000   0.3969283   0.1793940), wk =   0.0013021
        k(  503) = (   0.3125000   0.3969283   0.2391919), wk =   0.0013021
        k(  504) = (   0.3125000   0.3969283   0.2989899), wk =   0.0013021
        k(  505) = (   0.3125000   0.4690971   0.0000000), wk =   0.0013021
        k(  506) = (   0.3125000   0.4690971   0.0597980), wk =   0.0013021
        k(  507) = (   0.3125000   0.4690971   0.1195960), wk =   0.0013021
        k(  508) = (   0.3125000   0.4690971   0.1793940), wk =   0.0013021
        k(  509) = (   0.3125000   0.4690971   0.2391919), wk =   0.0013021
        k(  510) = (   0.3125000   0.4690971   0.2989899), wk =   0.0013021
        k(  511) = (   0.3125000   0.5412659   0.0000000), wk =   0.0013021
        k(  512) = (   0.3125000   0.5412659   0.0597980), wk =   0.0013021
        k(  513) = (   0.3125000   0.5412659   0.1195960), wk =   0.0013021
        k(  514) = (   0.3125000   0.5412659   0.1793940), wk =   0.0013021
        k(  515) = (   0.3125000   0.5412659   0.2391919), wk =   0.0013021
        k(  516) = (   0.3125000   0.5412659   0.2989899), wk =   0.0013021
        k(  517) = (   0.3125000   0.6134347   0.0000000), wk =   0.0013021
        k(  518) = (   0.3125000   0.6134347   0.0597980), wk =   0.0013021
        k(  519) = (   0.3125000   0.6134347   0.1195960), wk =   0.0013021
        k(  520) = (   0.3125000   0.6134347   0.1793940), wk =   0.0013021
        k(  521) = (   0.3125000   0.6134347   0.2391919), wk =   0.0013021
        k(  522) = (   0.3125000   0.6134347   0.2989899), wk =   0.0013021
        k(  523) = (   0.3125000   0.6856034   0.0000000), wk =   0.0013021
        k(  524) = (   0.3125000   0.6856034   0.0597980), wk =   0.0013021
        k(  525) = (   0.3125000   0.6856034   0.1195960), wk =   0.0013021
        k(  526) = (   0.3125000   0.6856034   0.1793940), wk =   0.0013021
        k(  527) = (   0.3125000   0.6856034   0.2391919), wk =   0.0013021
        k(  528) = (   0.3125000   0.6856034   0.2989899), wk =   0.0013021
        k(  529) = (   0.3125000   0.7577722   0.0000000), wk =   0.0013021
        k(  530) = (   0.3125000   0.7577722   0.0597980), wk =   0.0013021
        k(  531) = (   0.3125000   0.7577722   0.1195960), wk =   0.0013021
        k(  532) = (   0.3125000   0.7577722   0.1793940), wk =   0.0013021
        k(  533) = (   0.3125000   0.7577722   0.2391919), wk =   0.0013021
        k(  534) = (   0.3125000   0.7577722   0.2989899), wk =   0.0013021
        k(  535) = (   0.3125000   0.8299410   0.0000000), wk =   0.0013021
        k(  536) = (   0.3125000   0.8299410   0.0597980), wk =   0.0013021
        k(  537) = (   0.3125000   0.8299410   0.1195960), wk =   0.0013021
        k(  538) = (   0.3125000   0.8299410   0.1793940), wk =   0.0013021
        k(  539) = (   0.3125000   0.8299410   0.2391919), wk =   0.0013021
        k(  540) = (   0.3125000   0.8299410   0.2989899), wk =   0.0013021
        k(  541) = (   0.3125000   0.9021098   0.0000000), wk =   0.0013021
        k(  542) = (   0.3125000   0.9021098   0.0597980), wk =   0.0013021
        k(  543) = (   0.3125000   0.9021098   0.1195960), wk =   0.0013021
        k(  544) = (   0.3125000   0.9021098   0.1793940), wk =   0.0013021
        k(  545) = (   0.3125000   0.9021098   0.2391919), wk =   0.0013021
        k(  546) = (   0.3125000   0.9021098   0.2989899), wk =   0.0013021
        k(  547) = (   0.3125000   0.9742786   0.0000000), wk =   0.0013021
        k(  548) = (   0.3125000   0.9742786   0.0597980), wk =   0.0013021
        k(  549) = (   0.3125000   0.9742786   0.1195960), wk =   0.0013021
        k(  550) = (   0.3125000   0.9742786   0.1793940), wk =   0.0013021
        k(  551) = (   0.3125000   0.9742786   0.2391919), wk =   0.0013021
        k(  552) = (   0.3125000   0.9742786   0.2989899), wk =   0.0013021
        k(  553) = (   0.3125000   1.0464474   0.0000000), wk =   0.0013021
        k(  554) = (   0.3125000   1.0464474   0.0597980), wk =   0.0013021
        k(  555) = (   0.3125000   1.0464474   0.1195960), wk =   0.0013021
        k(  556) = (   0.3125000   1.0464474   0.1793940), wk =   0.0013021
        k(  557) = (   0.3125000   1.0464474   0.2391919), wk =   0.0013021
        k(  558) = (   0.3125000   1.0464474   0.2989899), wk =   0.0013021
        k(  559) = (   0.3125000   1.1186161   0.0000000), wk =   0.0013021
        k(  560) = (   0.3125000   1.1186161   0.0597980), wk =   0.0013021
        k(  561) = (   0.3125000   1.1186161   0.1195960), wk =   0.0013021
        k(  562) = (   0.3125000   1.1186161   0.1793940), wk =   0.0013021
        k(  563) = (   0.3125000   1.1186161   0.2391919), wk =   0.0013021
        k(  564) = (   0.3125000   1.1186161   0.2989899), wk =   0.0013021
        k(  565) = (   0.3125000   1.1907849   0.0000000), wk =   0.0013021
        k(  566) = (   0.3125000   1.1907849   0.0597980), wk =   0.0013021
        k(  567) = (   0.3125000   1.1907849   0.1195960), wk =   0.0013021
        k(  568) = (   0.3125000   1.1907849   0.1793940), wk =   0.0013021
        k(  569) = (   0.3125000   1.1907849   0.2391919), wk =   0.0013021
        k(  570) = (   0.3125000   1.1907849   0.2989899), wk =   0.0013021
        k(  571) = (   0.3125000   1.2629537   0.0000000), wk =   0.0013021
        k(  572) = (   0.3125000   1.2629537   0.0597980), wk =   0.0013021
        k(  573) = (   0.3125000   1.2629537   0.1195960), wk =   0.0013021
        k(  574) = (   0.3125000   1.2629537   0.1793940), wk =   0.0013021
        k(  575) = (   0.3125000   1.2629537   0.2391919), wk =   0.0013021
        k(  576) = (   0.3125000   1.2629537   0.2989899), wk =   0.0013021
        k(  577) = (   0.3750000   0.2165064   0.0000000), wk =   0.0013021
        k(  578) = (   0.3750000   0.2165064   0.0597980), wk =   0.0013021
        k(  579) = (   0.3750000   0.2165064   0.1195960), wk =   0.0013021
        k(  580) = (   0.3750000   0.2165064   0.1793940), wk =   0.0013021
        k(  581) = (   0.3750000   0.2165064   0.2391919), wk =   0.0013021
        k(  582) = (   0.3750000   0.2165064   0.2989899), wk =   0.0013021
        k(  583) = (   0.3750000   0.2886751   0.0000000), wk =   0.0013021
        k(  584) = (   0.3750000   0.2886751   0.0597980), wk =   0.0013021
        k(  585) = (   0.3750000   0.2886751   0.1195960), wk =   0.0013021
        k(  586) = (   0.3750000   0.2886751   0.1793940), wk =   0.0013021
        k(  587) = (   0.3750000   0.2886751   0.2391919), wk =   0.0013021
        k(  588) = (   0.3750000   0.2886751   0.2989899), wk =   0.0013021
        k(  589) = (   0.3750000   0.3608439   0.0000000), wk =   0.0013021
        k(  590) = (   0.3750000   0.3608439   0.0597980), wk =   0.0013021
        k(  591) = (   0.3750000   0.3608439   0.1195960), wk =   0.0013021
        k(  592) = (   0.3750000   0.3608439   0.1793940), wk =   0.0013021
        k(  593) = (   0.3750000   0.3608439   0.2391919), wk =   0.0013021
        k(  594) = (   0.3750000   0.3608439   0.2989899), wk =   0.0013021
        k(  595) = (   0.3750000   0.4330127   0.0000000), wk =   0.0013021
        k(  596) = (   0.3750000   0.4330127   0.0597980), wk =   0.0013021
        k(  597) = (   0.3750000   0.4330127   0.1195960), wk =   0.0013021
        k(  598) = (   0.3750000   0.4330127   0.1793940), wk =   0.0013021
        k(  599) = (   0.3750000   0.4330127   0.2391919), wk =   0.0013021
        k(  600) = (   0.3750000   0.4330127   0.2989899), wk =   0.0013021
        k(  601) = (   0.3750000   0.5051815   0.0000000), wk =   0.0013021
        k(  602) = (   0.3750000   0.5051815   0.0597980), wk =   0.0013021
        k(  603) = (   0.3750000   0.5051815   0.1195960), wk =   0.0013021
        k(  604) = (   0.3750000   0.5051815   0.1793940), wk =   0.0013021
        k(  605) = (   0.3750000   0.5051815   0.2391919), wk =   0.0013021
        k(  606) = (   0.3750000   0.5051815   0.2989899), wk =   0.0013021
        k(  607) = (   0.3750000   0.5773503   0.0000000), wk =   0.0013021
        k(  608) = (   0.3750000   0.5773503   0.0597980), wk =   0.0013021
        k(  609) = (   0.3750000   0.5773503   0.1195960), wk =   0.0013021
        k(  610) = (   0.3750000   0.5773503   0.1793940), wk =   0.0013021
        k(  611) = (   0.3750000   0.5773503   0.2391919), wk =   0.0013021
        k(  612) = (   0.3750000   0.5773503   0.2989899), wk =   0.0013021
        k(  613) = (   0.3750000   0.6495191   0.0000000), wk =   0.0013021
        k(  614) = (   0.3750000   0.6495191   0.0597980), wk =   0.0013021
        k(  615) = (   0.3750000   0.6495191   0.1195960), wk =   0.0013021
        k(  616) = (   0.3750000   0.6495191   0.1793940), wk =   0.0013021
        k(  617) = (   0.3750000   0.6495191   0.2391919), wk =   0.0013021
        k(  618) = (   0.3750000   0.6495191   0.2989899), wk =   0.0013021
        k(  619) = (   0.3750000   0.7216878   0.0000000), wk =   0.0013021
        k(  620) = (   0.3750000   0.7216878   0.0597980), wk =   0.0013021
        k(  621) = (   0.3750000   0.7216878   0.1195960), wk =   0.0013021
        k(  622) = (   0.3750000   0.7216878   0.1793940), wk =   0.0013021
        k(  623) = (   0.3750000   0.7216878   0.2391919), wk =   0.0013021
        k(  624) = (   0.3750000   0.7216878   0.2989899), wk =   0.0013021
        k(  625) = (   0.3750000   0.7938566   0.0000000), wk =   0.0013021
        k(  626) = (   0.3750000   0.7938566   0.0597980), wk =   0.0013021
        k(  627) = (   0.3750000   0.7938566   0.1195960), wk =   0.0013021
        k(  628) = (   0.3750000   0.7938566   0.1793940), wk =   0.0013021
        k(  629) = (   0.3750000   0.7938566   0.2391919), wk =   0.0013021
        k(  630) = (   0.3750000   0.7938566   0.2989899), wk =   0.0013021
        k(  631) = (   0.3750000   0.8660254   0.0000000), wk =   0.0013021
        k(  632) = (   0.3750000   0.8660254   0.0597980), wk =   0.0013021
        k(  633) = (   0.3750000   0.8660254   0.1195960), wk =   0.0013021
        k(  634) = (   0.3750000   0.8660254   0.1793940), wk =   0.0013021
        k(  635) = (   0.3750000   0.8660254   0.2391919), wk =   0.0013021
        k(  636) = (   0.3750000   0.8660254   0.2989899), wk =   0.0013021
        k(  637) = (   0.3750000   0.9381942   0.0000000), wk =   0.0013021
        k(  638) = (   0.3750000   0.9381942   0.0597980), wk =   0.0013021
        k(  639) = (   0.3750000   0.9381942   0.1195960), wk =   0.0013021
        k(  640) = (   0.3750000   0.9381942   0.1793940), wk =   0.0013021
        k(  641) = (   0.3750000   0.9381942   0.2391919), wk =   0.0013021
        k(  642) = (   0.3750000   0.9381942   0.2989899), wk =   0.0013021
        k(  643) = (   0.3750000   1.0103630   0.0000000), wk =   0.0013021
        k(  644) = (   0.3750000   1.0103630   0.0597980), wk =   0.0013021
        k(  645) = (   0.3750000   1.0103630   0.1195960), wk =   0.0013021
        k(  646) = (   0.3750000   1.0103630   0.1793940), wk =   0.0013021
        k(  647) = (   0.3750000   1.0103630   0.2391919), wk =   0.0013021
        k(  648) = (   0.3750000   1.0103630   0.2989899), wk =   0.0013021
        k(  649) = (   0.3750000   1.0825318   0.0000000), wk =   0.0013021
        k(  650) = (   0.3750000   1.0825318   0.0597980), wk =   0.0013021
        k(  651) = (   0.3750000   1.0825318   0.1195960), wk =   0.0013021
        k(  652) = (   0.3750000   1.0825318   0.1793940), wk =   0.0013021
        k(  653) = (   0.3750000   1.0825318   0.2391919), wk =   0.0013021
        k(  654) = (   0.3750000   1.0825318   0.2989899), wk =   0.0013021
        k(  655) = (   0.3750000   1.1547005   0.0000000), wk =   0.0013021
        k(  656) = (   0.3750000   1.1547005   0.0597980), wk =   0.0013021
        k(  657) = (   0.3750000   1.1547005   0.1195960), wk =   0.0013021
        k(  658) = (   0.3750000   1.1547005   0.1793940), wk =   0.0013021
        k(  659) = (   0.3750000   1.1547005   0.2391919), wk =   0.0013021
        k(  660) = (   0.3750000   1.1547005   0.2989899), wk =   0.0013021
        k(  661) = (   0.3750000   1.2268693   0.0000000), wk =   0.0013021
        k(  662) = (   0.3750000   1.2268693   0.0597980), wk =   0.0013021
        k(  663) = (   0.3750000   1.2268693   0.1195960), wk =   0.0013021
        k(  664) = (   0.3750000   1.2268693   0.1793940), wk =   0.0013021
        k(  665) = (   0.3750000   1.2268693   0.2391919), wk =   0.0013021
        k(  666) = (   0.3750000   1.2268693   0.2989899), wk =   0.0013021
        k(  667) = (   0.3750000   1.2990381   0.0000000), wk =   0.0013021
        k(  668) = (   0.3750000   1.2990381   0.0597980), wk =   0.0013021
        k(  669) = (   0.3750000   1.2990381   0.1195960), wk =   0.0013021
        k(  670) = (   0.3750000   1.2990381   0.1793940), wk =   0.0013021
        k(  671) = (   0.3750000   1.2990381   0.2391919), wk =   0.0013021
        k(  672) = (   0.3750000   1.2990381   0.2989899), wk =   0.0013021
        k(  673) = (   0.4375000   0.2525907   0.0000000), wk =   0.0013021
        k(  674) = (   0.4375000   0.2525907   0.0597980), wk =   0.0013021
        k(  675) = (   0.4375000   0.2525907   0.1195960), wk =   0.0013021
        k(  676) = (   0.4375000   0.2525907   0.1793940), wk =   0.0013021
        k(  677) = (   0.4375000   0.2525907   0.2391919), wk =   0.0013021
        k(  678) = (   0.4375000   0.2525907   0.2989899), wk =   0.0013021
        k(  679) = (   0.4375000   0.3247595   0.0000000), wk =   0.0013021
        k(  680) = (   0.4375000   0.3247595   0.0597980), wk =   0.0013021
        k(  681) = (   0.4375000   0.3247595   0.1195960), wk =   0.0013021
        k(  682) = (   0.4375000   0.3247595   0.1793940), wk =   0.0013021
        k(  683) = (   0.4375000   0.3247595   0.2391919), wk =   0.0013021
        k(  684) = (   0.4375000   0.3247595   0.2989899), wk =   0.0013021
        k(  685) = (   0.4375000   0.3969283   0.0000000), wk =   0.0013021
        k(  686) = (   0.4375000   0.3969283   0.0597980), wk =   0.0013021
        k(  687) = (   0.4375000   0.3969283   0.1195960), wk =   0.0013021
        k(  688) = (   0.4375000   0.3969283   0.1793940), wk =   0.0013021
        k(  689) = (   0.4375000   0.3969283   0.2391919), wk =   0.0013021
        k(  690) = (   0.4375000   0.3969283   0.2989899), wk =   0.0013021
        k(  691) = (   0.4375000   0.4690971   0.0000000), wk =   0.0013021
        k(  692) = (   0.4375000   0.4690971   0.0597980), wk =   0.0013021
        k(  693) = (   0.4375000   0.4690971   0.1195960), wk =   0.0013021
        k(  694) = (   0.4375000   0.4690971   0.1793940), wk =   0.0013021
        k(  695) = (   0.4375000   0.4690971   0.2391919), wk =   0.0013021
        k(  696) = (   0.4375000   0.4690971   0.2989899), wk =   0.0013021
        k(  697) = (   0.4375000   0.5412659   0.0000000), wk =   0.0013021
        k(  698) = (   0.4375000   0.5412659   0.0597980), wk =   0.0013021
        k(  699) = (   0.4375000   0.5412659   0.1195960), wk =   0.0013021
        k(  700) = (   0.4375000   0.5412659   0.1793940), wk =   0.0013021
        k(  701) = (   0.4375000   0.5412659   0.2391919), wk =   0.0013021
        k(  702) = (   0.4375000   0.5412659   0.2989899), wk =   0.0013021
        k(  703) = (   0.4375000   0.6134347   0.0000000), wk =   0.0013021
        k(  704) = (   0.4375000   0.6134347   0.0597980), wk =   0.0013021
        k(  705) = (   0.4375000   0.6134347   0.1195960), wk =   0.0013021
        k(  706) = (   0.4375000   0.6134347   0.1793940), wk =   0.0013021
        k(  707) = (   0.4375000   0.6134347   0.2391919), wk =   0.0013021
        k(  708) = (   0.4375000   0.6134347   0.2989899), wk =   0.0013021
        k(  709) = (   0.4375000   0.6856034   0.0000000), wk =   0.0013021
        k(  710) = (   0.4375000   0.6856034   0.0597980), wk =   0.0013021
        k(  711) = (   0.4375000   0.6856034   0.1195960), wk =   0.0013021
        k(  712) = (   0.4375000   0.6856034   0.1793940), wk =   0.0013021
        k(  713) = (   0.4375000   0.6856034   0.2391919), wk =   0.0013021
        k(  714) = (   0.4375000   0.6856034   0.2989899), wk =   0.0013021
        k(  715) = (   0.4375000   0.7577722   0.0000000), wk =   0.0013021
        k(  716) = (   0.4375000   0.7577722   0.0597980), wk =   0.0013021
        k(  717) = (   0.4375000   0.7577722   0.1195960), wk =   0.0013021
        k(  718) = (   0.4375000   0.7577722   0.1793940), wk =   0.0013021
        k(  719) = (   0.4375000   0.7577722   0.2391919), wk =   0.0013021
        k(  720) = (   0.4375000   0.7577722   0.2989899), wk =   0.0013021
        k(  721) = (   0.4375000   0.8299410   0.0000000), wk =   0.0013021
        k(  722) = (   0.4375000   0.8299410   0.0597980), wk =   0.0013021
        k(  723) = (   0.4375000   0.8299410   0.1195960), wk =   0.0013021
        k(  724) = (   0.4375000   0.8299410   0.1793940), wk =   0.0013021
        k(  725) = (   0.4375000   0.8299410   0.2391919), wk =   0.0013021
        k(  726) = (   0.4375000   0.8299410   0.2989899), wk =   0.0013021
        k(  727) = (   0.4375000   0.9021098   0.0000000), wk =   0.0013021
        k(  728) = (   0.4375000   0.9021098   0.0597980), wk =   0.0013021
        k(  729) = (   0.4375000   0.9021098   0.1195960), wk =   0.0013021
        k(  730) = (   0.4375000   0.9021098   0.1793940), wk =   0.0013021
        k(  731) = (   0.4375000   0.9021098   0.2391919), wk =   0.0013021
        k(  732) = (   0.4375000   0.9021098   0.2989899), wk =   0.0013021
        k(  733) = (   0.4375000   0.9742786   0.0000000), wk =   0.0013021
        k(  734) = (   0.4375000   0.9742786   0.0597980), wk =   0.0013021
        k(  735) = (   0.4375000   0.9742786   0.1195960), wk =   0.0013021
        k(  736) = (   0.4375000   0.9742786   0.1793940), wk =   0.0013021
        k(  737) = (   0.4375000   0.9742786   0.2391919), wk =   0.0013021
        k(  738) = (   0.4375000   0.9742786   0.2989899), wk =   0.0013021
        k(  739) = (   0.4375000   1.0464474   0.0000000), wk =   0.0013021
        k(  740) = (   0.4375000   1.0464474   0.0597980), wk =   0.0013021
        k(  741) = (   0.4375000   1.0464474   0.1195960), wk =   0.0013021
        k(  742) = (   0.4375000   1.0464474   0.1793940), wk =   0.0013021
        k(  743) = (   0.4375000   1.0464474   0.2391919), wk =   0.0013021
        k(  744) = (   0.4375000   1.0464474   0.2989899), wk =   0.0013021
        k(  745) = (   0.4375000   1.1186161   0.0000000), wk =   0.0013021
        k(  746) = (   0.4375000   1.1186161   0.0597980), wk =   0.0013021
        k(  747) = (   0.4375000   1.1186161   0.1195960), wk =   0.0013021
        k(  748) = (   0.4375000   1.1186161   0.1793940), wk =   0.0013021
        k(  749) = (   0.4375000   1.1186161   0.2391919), wk =   0.0013021
        k(  750) = (   0.4375000   1.1186161   0.2989899), wk =   0.0013021
        k(  751) = (   0.4375000   1.1907849   0.0000000), wk =   0.0013021
        k(  752) = (   0.4375000   1.1907849   0.0597980), wk =   0.0013021
        k(  753) = (   0.4375000   1.1907849   0.1195960), wk =   0.0013021
        k(  754) = (   0.4375000   1.1907849   0.1793940), wk =   0.0013021
        k(  755) = (   0.4375000   1.1907849   0.2391919), wk =   0.0013021
        k(  756) = (   0.4375000   1.1907849   0.2989899), wk =   0.0013021
        k(  757) = (   0.4375000   1.2629537   0.0000000), wk =   0.0013021
        k(  758) = (   0.4375000   1.2629537   0.0597980), wk =   0.0013021
        k(  759) = (   0.4375000   1.2629537   0.1195960), wk =   0.0013021
        k(  760) = (   0.4375000   1.2629537   0.1793940), wk =   0.0013021
        k(  761) = (   0.4375000   1.2629537   0.2391919), wk =   0.0013021
        k(  762) = (   0.4375000   1.2629537   0.2989899), wk =   0.0013021
        k(  763) = (   0.4375000   1.3351225   0.0000000), wk =   0.0013021
        k(  764) = (   0.4375000   1.3351225   0.0597980), wk =   0.0013021
        k(  765) = (   0.4375000   1.3351225   0.1195960), wk =   0.0013021
        k(  766) = (   0.4375000   1.3351225   0.1793940), wk =   0.0013021
        k(  767) = (   0.4375000   1.3351225   0.2391919), wk =   0.0013021
        k(  768) = (   0.4375000   1.3351225   0.2989899), wk =   0.0013021
        k(  769) = (   0.5000000   0.2886751   0.0000000), wk =   0.0013021
        k(  770) = (   0.5000000   0.2886751   0.0597980), wk =   0.0013021
        k(  771) = (   0.5000000   0.2886751   0.1195960), wk =   0.0013021
        k(  772) = (   0.5000000   0.2886751   0.1793940), wk =   0.0013021
        k(  773) = (   0.5000000   0.2886751   0.2391919), wk =   0.0013021
        k(  774) = (   0.5000000   0.2886751   0.2989899), wk =   0.0013021
        k(  775) = (   0.5000000   0.3608439   0.0000000), wk =   0.0013021
        k(  776) = (   0.5000000   0.3608439   0.0597980), wk =   0.0013021
        k(  777) = (   0.5000000   0.3608439   0.1195960), wk =   0.0013021
        k(  778) = (   0.5000000   0.3608439   0.1793940), wk =   0.0013021
        k(  779) = (   0.5000000   0.3608439   0.2391919), wk =   0.0013021
        k(  780) = (   0.5000000   0.3608439   0.2989899), wk =   0.0013021
        k(  781) = (   0.5000000   0.4330127   0.0000000), wk =   0.0013021
        k(  782) = (   0.5000000   0.4330127   0.0597980), wk =   0.0013021
        k(  783) = (   0.5000000   0.4330127   0.1195960), wk =   0.0013021
        k(  784) = (   0.5000000   0.4330127   0.1793940), wk =   0.0013021
        k(  785) = (   0.5000000   0.4330127   0.2391919), wk =   0.0013021
        k(  786) = (   0.5000000   0.4330127   0.2989899), wk =   0.0013021
        k(  787) = (   0.5000000   0.5051815   0.0000000), wk =   0.0013021
        k(  788) = (   0.5000000   0.5051815   0.0597980), wk =   0.0013021
        k(  789) = (   0.5000000   0.5051815   0.1195960), wk =   0.0013021
        k(  790) = (   0.5000000   0.5051815   0.1793940), wk =   0.0013021
        k(  791) = (   0.5000000   0.5051815   0.2391919), wk =   0.0013021
        k(  792) = (   0.5000000   0.5051815   0.2989899), wk =   0.0013021
        k(  793) = (   0.5000000   0.5773503   0.0000000), wk =   0.0013021
        k(  794) = (   0.5000000   0.5773503   0.0597980), wk =   0.0013021
        k(  795) = (   0.5000000   0.5773503   0.1195960), wk =   0.0013021
        k(  796) = (   0.5000000   0.5773503   0.1793940), wk =   0.0013021
        k(  797) = (   0.5000000   0.5773503   0.2391919), wk =   0.0013021
        k(  798) = (   0.5000000   0.5773503   0.2989899), wk =   0.0013021
        k(  799) = (   0.5000000   0.6495191   0.0000000), wk =   0.0013021
        k(  800) = (   0.5000000   0.6495191   0.0597980), wk =   0.0013021
        k(  801) = (   0.5000000   0.6495191   0.1195960), wk =   0.0013021
        k(  802) = (   0.5000000   0.6495191   0.1793940), wk =   0.0013021
        k(  803) = (   0.5000000   0.6495191   0.2391919), wk =   0.0013021
        k(  804) = (   0.5000000   0.6495191   0.2989899), wk =   0.0013021
        k(  805) = (   0.5000000   0.7216878   0.0000000), wk =   0.0013021
        k(  806) = (   0.5000000   0.7216878   0.0597980), wk =   0.0013021
        k(  807) = (   0.5000000   0.7216878   0.1195960), wk =   0.0013021
        k(  808) = (   0.5000000   0.7216878   0.1793940), wk =   0.0013021
        k(  809) = (   0.5000000   0.7216878   0.2391919), wk =   0.0013021
        k(  810) = (   0.5000000   0.7216878   0.2989899), wk =   0.0013021
        k(  811) = (   0.5000000   0.7938566   0.0000000), wk =   0.0013021
        k(  812) = (   0.5000000   0.7938566   0.0597980), wk =   0.0013021
        k(  813) = (   0.5000000   0.7938566   0.1195960), wk =   0.0013021
        k(  814) = (   0.5000000   0.7938566   0.1793940), wk =   0.0013021
        k(  815) = (   0.5000000   0.7938566   0.2391919), wk =   0.0013021
        k(  816) = (   0.5000000   0.7938566   0.2989899), wk =   0.0013021
        k(  817) = (   0.5000000   0.8660254   0.0000000), wk =   0.0013021
        k(  818) = (   0.5000000   0.8660254   0.0597980), wk =   0.0013021
        k(  819) = (   0.5000000   0.8660254   0.1195960), wk =   0.0013021
        k(  820) = (   0.5000000   0.8660254   0.1793940), wk =   0.0013021
        k(  821) = (   0.5000000   0.8660254   0.2391919), wk =   0.0013021
        k(  822) = (   0.5000000   0.8660254   0.2989899), wk =   0.0013021
        k(  823) = (   0.5000000   0.9381942   0.0000000), wk =   0.0013021
        k(  824) = (   0.5000000   0.9381942   0.0597980), wk =   0.0013021
        k(  825) = (   0.5000000   0.9381942   0.1195960), wk =   0.0013021
        k(  826) = (   0.5000000   0.9381942   0.1793940), wk =   0.0013021
        k(  827) = (   0.5000000   0.9381942   0.2391919), wk =   0.0013021
        k(  828) = (   0.5000000   0.9381942   0.2989899), wk =   0.0013021
        k(  829) = (   0.5000000   1.0103630   0.0000000), wk =   0.0013021
        k(  830) = (   0.5000000   1.0103630   0.0597980), wk =   0.0013021
        k(  831) = (   0.5000000   1.0103630   0.1195960), wk =   0.0013021
        k(  832) = (   0.5000000   1.0103630   0.1793940), wk =   0.0013021
        k(  833) = (   0.5000000   1.0103630   0.2391919), wk =   0.0013021
        k(  834) = (   0.5000000   1.0103630   0.2989899), wk =   0.0013021
        k(  835) = (   0.5000000   1.0825318   0.0000000), wk =   0.0013021
        k(  836) = (   0.5000000   1.0825318   0.0597980), wk =   0.0013021
        k(  837) = (   0.5000000   1.0825318   0.1195960), wk =   0.0013021
        k(  838) = (   0.5000000   1.0825318   0.1793940), wk =   0.0013021
        k(  839) = (   0.5000000   1.0825318   0.2391919), wk =   0.0013021
        k(  840) = (   0.5000000   1.0825318   0.2989899), wk =   0.0013021
        k(  841) = (   0.5000000   1.1547005   0.0000000), wk =   0.0013021
        k(  842) = (   0.5000000   1.1547005   0.0597980), wk =   0.0013021
        k(  843) = (   0.5000000   1.1547005   0.1195960), wk =   0.0013021
        k(  844) = (   0.5000000   1.1547005   0.1793940), wk =   0.0013021
        k(  845) = (   0.5000000   1.1547005   0.2391919), wk =   0.0013021
        k(  846) = (   0.5000000   1.1547005   0.2989899), wk =   0.0013021
        k(  847) = (   0.5000000   1.2268693   0.0000000), wk =   0.0013021
        k(  848) = (   0.5000000   1.2268693   0.0597980), wk =   0.0013021
        k(  849) = (   0.5000000   1.2268693   0.1195960), wk =   0.0013021
        k(  850) = (   0.5000000   1.2268693   0.1793940), wk =   0.0013021
        k(  851) = (   0.5000000   1.2268693   0.2391919), wk =   0.0013021
        k(  852) = (   0.5000000   1.2268693   0.2989899), wk =   0.0013021
        k(  853) = (   0.5000000   1.2990381   0.0000000), wk =   0.0013021
        k(  854) = (   0.5000000   1.2990381   0.0597980), wk =   0.0013021
        k(  855) = (   0.5000000   1.2990381   0.1195960), wk =   0.0013021
        k(  856) = (   0.5000000   1.2990381   0.1793940), wk =   0.0013021
        k(  857) = (   0.5000000   1.2990381   0.2391919), wk =   0.0013021
        k(  858) = (   0.5000000   1.2990381   0.2989899), wk =   0.0013021
        k(  859) = (   0.5000000   1.3712069   0.0000000), wk =   0.0013021
        k(  860) = (   0.5000000   1.3712069   0.0597980), wk =   0.0013021
        k(  861) = (   0.5000000   1.3712069   0.1195960), wk =   0.0013021
        k(  862) = (   0.5000000   1.3712069   0.1793940), wk =   0.0013021
        k(  863) = (   0.5000000   1.3712069   0.2391919), wk =   0.0013021
        k(  864) = (   0.5000000   1.3712069   0.2989899), wk =   0.0013021
        k(  865) = (   0.5625000   0.3247595   0.0000000), wk =   0.0013021
        k(  866) = (   0.5625000   0.3247595   0.0597980), wk =   0.0013021
        k(  867) = (   0.5625000   0.3247595   0.1195960), wk =   0.0013021
        k(  868) = (   0.5625000   0.3247595   0.1793940), wk =   0.0013021
        k(  869) = (   0.5625000   0.3247595   0.2391919), wk =   0.0013021
        k(  870) = (   0.5625000   0.3247595   0.2989899), wk =   0.0013021
        k(  871) = (   0.5625000   0.3969283   0.0000000), wk =   0.0013021
        k(  872) = (   0.5625000   0.3969283   0.0597980), wk =   0.0013021
        k(  873) = (   0.5625000   0.3969283   0.1195960), wk =   0.0013021
        k(  874) = (   0.5625000   0.3969283   0.1793940), wk =   0.0013021
        k(  875) = (   0.5625000   0.3969283   0.2391919), wk =   0.0013021
        k(  876) = (   0.5625000   0.3969283   0.2989899), wk =   0.0013021
        k(  877) = (   0.5625000   0.4690971   0.0000000), wk =   0.0013021
        k(  878) = (   0.5625000   0.4690971   0.0597980), wk =   0.0013021
        k(  879) = (   0.5625000   0.4690971   0.1195960), wk =   0.0013021
        k(  880) = (   0.5625000   0.4690971   0.1793940), wk =   0.0013021
        k(  881) = (   0.5625000   0.4690971   0.2391919), wk =   0.0013021
        k(  882) = (   0.5625000   0.4690971   0.2989899), wk =   0.0013021
        k(  883) = (   0.5625000   0.5412659   0.0000000), wk =   0.0013021
        k(  884) = (   0.5625000   0.5412659   0.0597980), wk =   0.0013021
        k(  885) = (   0.5625000   0.5412659   0.1195960), wk =   0.0013021
        k(  886) = (   0.5625000   0.5412659   0.1793940), wk =   0.0013021
        k(  887) = (   0.5625000   0.5412659   0.2391919), wk =   0.0013021
        k(  888) = (   0.5625000   0.5412659   0.2989899), wk =   0.0013021
        k(  889) = (   0.5625000   0.6134347   0.0000000), wk =   0.0013021
        k(  890) = (   0.5625000   0.6134347   0.0597980), wk =   0.0013021
        k(  891) = (   0.5625000   0.6134347   0.1195960), wk =   0.0013021
        k(  892) = (   0.5625000   0.6134347   0.1793940), wk =   0.0013021
        k(  893) = (   0.5625000   0.6134347   0.2391919), wk =   0.0013021
        k(  894) = (   0.5625000   0.6134347   0.2989899), wk =   0.0013021
        k(  895) = (   0.5625000   0.6856034   0.0000000), wk =   0.0013021
        k(  896) = (   0.5625000   0.6856034   0.0597980), wk =   0.0013021
        k(  897) = (   0.5625000   0.6856034   0.1195960), wk =   0.0013021
        k(  898) = (   0.5625000   0.6856034   0.1793940), wk =   0.0013021
        k(  899) = (   0.5625000   0.6856034   0.2391919), wk =   0.0013021
        k(  900) = (   0.5625000   0.6856034   0.2989899), wk =   0.0013021
        k(  901) = (   0.5625000   0.7577722   0.0000000), wk =   0.0013021
        k(  902) = (   0.5625000   0.7577722   0.0597980), wk =   0.0013021
        k(  903) = (   0.5625000   0.7577722   0.1195960), wk =   0.0013021
        k(  904) = (   0.5625000   0.7577722   0.1793940), wk =   0.0013021
        k(  905) = (   0.5625000   0.7577722   0.2391919), wk =   0.0013021
        k(  906) = (   0.5625000   0.7577722   0.2989899), wk =   0.0013021
        k(  907) = (   0.5625000   0.8299410   0.0000000), wk =   0.0013021
        k(  908) = (   0.5625000   0.8299410   0.0597980), wk =   0.0013021
        k(  909) = (   0.5625000   0.8299410   0.1195960), wk =   0.0013021
        k(  910) = (   0.5625000   0.8299410   0.1793940), wk =   0.0013021
        k(  911) = (   0.5625000   0.8299410   0.2391919), wk =   0.0013021
        k(  912) = (   0.5625000   0.8299410   0.2989899), wk =   0.0013021
        k(  913) = (   0.5625000   0.9021098   0.0000000), wk =   0.0013021
        k(  914) = (   0.5625000   0.9021098   0.0597980), wk =   0.0013021
        k(  915) = (   0.5625000   0.9021098   0.1195960), wk =   0.0013021
        k(  916) = (   0.5625000   0.9021098   0.1793940), wk =   0.0013021
        k(  917) = (   0.5625000   0.9021098   0.2391919), wk =   0.0013021
        k(  918) = (   0.5625000   0.9021098   0.2989899), wk =   0.0013021
        k(  919) = (   0.5625000   0.9742786   0.0000000), wk =   0.0013021
        k(  920) = (   0.5625000   0.9742786   0.0597980), wk =   0.0013021
        k(  921) = (   0.5625000   0.9742786   0.1195960), wk =   0.0013021
        k(  922) = (   0.5625000   0.9742786   0.1793940), wk =   0.0013021
        k(  923) = (   0.5625000   0.9742786   0.2391919), wk =   0.0013021
        k(  924) = (   0.5625000   0.9742786   0.2989899), wk =   0.0013021
        k(  925) = (   0.5625000   1.0464474   0.0000000), wk =   0.0013021
        k(  926) = (   0.5625000   1.0464474   0.0597980), wk =   0.0013021
        k(  927) = (   0.5625000   1.0464474   0.1195960), wk =   0.0013021
        k(  928) = (   0.5625000   1.0464474   0.1793940), wk =   0.0013021
        k(  929) = (   0.5625000   1.0464474   0.2391919), wk =   0.0013021
        k(  930) = (   0.5625000   1.0464474   0.2989899), wk =   0.0013021
        k(  931) = (   0.5625000   1.1186161   0.0000000), wk =   0.0013021
        k(  932) = (   0.5625000   1.1186161   0.0597980), wk =   0.0013021
        k(  933) = (   0.5625000   1.1186161   0.1195960), wk =   0.0013021
        k(  934) = (   0.5625000   1.1186161   0.1793940), wk =   0.0013021
        k(  935) = (   0.5625000   1.1186161   0.2391919), wk =   0.0013021
        k(  936) = (   0.5625000   1.1186161   0.2989899), wk =   0.0013021
        k(  937) = (   0.5625000   1.1907849   0.0000000), wk =   0.0013021
        k(  938) = (   0.5625000   1.1907849   0.0597980), wk =   0.0013021
        k(  939) = (   0.5625000   1.1907849   0.1195960), wk =   0.0013021
        k(  940) = (   0.5625000   1.1907849   0.1793940), wk =   0.0013021
        k(  941) = (   0.5625000   1.1907849   0.2391919), wk =   0.0013021
        k(  942) = (   0.5625000   1.1907849   0.2989899), wk =   0.0013021
        k(  943) = (   0.5625000   1.2629537   0.0000000), wk =   0.0013021
        k(  944) = (   0.5625000   1.2629537   0.0597980), wk =   0.0013021
        k(  945) = (   0.5625000   1.2629537   0.1195960), wk =   0.0013021
        k(  946) = (   0.5625000   1.2629537   0.1793940), wk =   0.0013021
        k(  947) = (   0.5625000   1.2629537   0.2391919), wk =   0.0013021
        k(  948) = (   0.5625000   1.2629537   0.2989899), wk =   0.0013021
        k(  949) = (   0.5625000   1.3351225   0.0000000), wk =   0.0013021
        k(  950) = (   0.5625000   1.3351225   0.0597980), wk =   0.0013021
        k(  951) = (   0.5625000   1.3351225   0.1195960), wk =   0.0013021
        k(  952) = (   0.5625000   1.3351225   0.1793940), wk =   0.0013021
        k(  953) = (   0.5625000   1.3351225   0.2391919), wk =   0.0013021
        k(  954) = (   0.5625000   1.3351225   0.2989899), wk =   0.0013021
        k(  955) = (   0.5625000   1.4072913   0.0000000), wk =   0.0013021
        k(  956) = (   0.5625000   1.4072913   0.0597980), wk =   0.0013021
        k(  957) = (   0.5625000   1.4072913   0.1195960), wk =   0.0013021
        k(  958) = (   0.5625000   1.4072913   0.1793940), wk =   0.0013021
        k(  959) = (   0.5625000   1.4072913   0.2391919), wk =   0.0013021
        k(  960) = (   0.5625000   1.4072913   0.2989899), wk =   0.0013021
        k(  961) = (   0.6250000   0.3608439   0.0000000), wk =   0.0013021
        k(  962) = (   0.6250000   0.3608439   0.0597980), wk =   0.0013021
        k(  963) = (   0.6250000   0.3608439   0.1195960), wk =   0.0013021
        k(  964) = (   0.6250000   0.3608439   0.1793940), wk =   0.0013021
        k(  965) = (   0.6250000   0.3608439   0.2391919), wk =   0.0013021
        k(  966) = (   0.6250000   0.3608439   0.2989899), wk =   0.0013021
        k(  967) = (   0.6250000   0.4330127   0.0000000), wk =   0.0013021
        k(  968) = (   0.6250000   0.4330127   0.0597980), wk =   0.0013021
        k(  969) = (   0.6250000   0.4330127   0.1195960), wk =   0.0013021
        k(  970) = (   0.6250000   0.4330127   0.1793940), wk =   0.0013021
        k(  971) = (   0.6250000   0.4330127   0.2391919), wk =   0.0013021
        k(  972) = (   0.6250000   0.4330127   0.2989899), wk =   0.0013021
        k(  973) = (   0.6250000   0.5051815   0.0000000), wk =   0.0013021
        k(  974) = (   0.6250000   0.5051815   0.0597980), wk =   0.0013021
        k(  975) = (   0.6250000   0.5051815   0.1195960), wk =   0.0013021
        k(  976) = (   0.6250000   0.5051815   0.1793940), wk =   0.0013021
        k(  977) = (   0.6250000   0.5051815   0.2391919), wk =   0.0013021
        k(  978) = (   0.6250000   0.5051815   0.2989899), wk =   0.0013021
        k(  979) = (   0.6250000   0.5773503   0.0000000), wk =   0.0013021
        k(  980) = (   0.6250000   0.5773503   0.0597980), wk =   0.0013021
        k(  981) = (   0.6250000   0.5773503   0.1195960), wk =   0.0013021
        k(  982) = (   0.6250000   0.5773503   0.1793940), wk =   0.0013021
        k(  983) = (   0.6250000   0.5773503   0.2391919), wk =   0.0013021
        k(  984) = (   0.6250000   0.5773503   0.2989899), wk =   0.0013021
[...]

     occupation numbers 
     1.0000   1.0000   1.0000   1.0000   1.0000   1.0000   1.0000   1.0000
     0.0000   0.0000   0.0000   0.0000   0.0000   0.0000   0.0000   0.0000
     0.0000   0.0000   0.0000   0.0000   0.0000   0.0000   0.0000   0.0000
     0.0000   0.0000   0.0000   0.0000   0.0000   0.0000   0.0000   0.0000

          k = 0.9375 1.3351 0.2990 (  2372 PWs)   bands (ev):

    -9.9561  -9.7710  -3.0405  -2.9423   0.6658   0.7074   1.8532   3.1376
    11.1969  11.8813  14.7257  15.0526  15.3968  18.9717  21.5376  22.6684
    23.4822  24.1087  25.4133  26.0726  27.9212  28.6508  30.2843  31.1088
    33.1401  33.9325  34.5556  36.2318  38.2237  39.2675  40.8045  42.8083

     occupation numbers 
     1.0000   1.0000   1.0000   1.0000   1.0000   1.0000   1.0000   1.0000
     0.0000   0.0000   0.0000   0.0000   0.0000   0.0000   0.0000   0.0000
     0.0000   0.0000   0.0000   0.0000   0.0000   0.0000   0.0000   0.0000
     0.0000   0.0000   0.0000   0.0000   0.0000   0.0000   0.0000   0.0000

          k = 0.9375 1.4073 0.0000 (  2372 PWs)   bands (ev):

   -10.8816 -10.6534  -1.4078  -1.3175   0.7085   1.1873   1.2318   2.3112
    12.9640  13.4045  13.5800  15.2526  15.5378  18.7114  20.5581  20.8806
    23.0931  23.9367  24.6644  26.0477  27.8232  29.0809  30.8234  32.6781
    32.8325  34.4409  35.3218  35.6941  38.7420  40.1511  42.4188  42.7083

     occupation numbers 
     1.0000   1.0000   1.0000   1.0000   1.0000   1.0000   1.0000   1.0000
     0.0000   0.0000   0.0000   0.0000   0.0000   0.0000   0.0000   0.0000
     0.0000   0.0000   0.0000   0.0000   0.0000   0.0000   0.0000   0.0000
     0.0000   0.0000   0.0000   0.0000   0.0000   0.0000   0.0000   0.0000

          k = 0.9375 1.4073 0.0598 (  2372 PWs)   bands (ev):

   -10.8670 -10.6694  -1.4019  -1.3237   0.8013   1.1903   1.2288   2.1839
    12.9802  13.5287  13.7114  15.2664  15.5311  18.2203  20.5891  20.8638
    23.1184  23.8156  24.8270  26.0618  28.2115  29.1882  30.9989  31.9096
    33.2953  34.5010  35.0294  36.0389  38.4350  40.2282  41.0339  43.4405

     occupation numbers 
     1.0000   1.0000   1.0000   1.0000   1.0000   1.0000   1.0000   1.0000
     0.0000   0.0000   0.0000   0.0000   0.0000   0.0000   0.0000   0.0000
     0.0000   0.0000   0.0000   0.0000   0.0000   0.0000   0.0000   0.0000
     0.0000   0.0000   0.0000   0.0000   0.0000   0.0000   0.0000   0.0000

          k = 0.9375 1.4073 0.1196 (  2370 PWs)   bands (ev):

   -10.8267 -10.7126  -1.3856  -1.3405   1.0629   1.1984   1.2207   1.8553
    13.0742  13.3987  14.4896  15.2951  15.5319  17.0939  20.6590  20.8149
    23.1988  23.5809  25.1719  25.8948  29.3116  29.5205  30.8612  31.4374
    33.3943  33.7657  35.4150  36.9044  37.6731  39.5866  40.5104  42.4105

     occupation numbers 
     1.0000   1.0000   1.0000   1.0000   1.0000   1.0000   1.0000   1.0000
     0.0000   0.0000   0.0000   0.0000   0.0000   0.0000   0.0000   0.0000
     0.0000   0.0000   0.0000   0.0000   0.0000   0.0000   0.0000   0.0000
     0.0000   0.0000   0.0000   0.0000   0.0000   0.0000   0.0000   0.0000

          k = 0.9375 1.4073 0.1794 (  2374 PWs)   bands (ev):

   -10.7704 -10.7704  -1.3633  -1.3631   1.2094   1.2095   1.4426   1.4429
    13.2298  13.2299  15.2317  15.2319  15.9035  15.9039  20.7413  20.7415
    23.3558  23.3559  25.5577  25.5580  30.0153  30.0156  30.7980  30.7989
    33.3678  33.3683  36.3122  36.3126  38.3576  38.3580  41.1454  41.1456

     occupation numbers 
     1.0000   1.0000   1.0000   1.0000   1.0000   1.0000   1.0000   1.0000
     0.0000   0.0000   0.0000   0.0000   0.0000   0.0000   0.0000   0.0000
     0.0000   0.0000   0.0000   0.0000   0.0000   0.0000   0.0000   0.0000
     0.0000   0.0000   0.0000   0.0000   0.0000   0.0000   0.0000   0.0000

          k = 0.9375 1.4073 0.2392 (  2370 PWs)   bands (ev):

   -10.8267 -10.7126  -1.3856  -1.3405   1.0629   1.1984   1.2207   1.8553
    13.0742  13.3987  14.4896  15.2952  15.5319  17.0939  20.6590  20.8149
    23.1989  23.5809  25.1719  25.8949  29.3114  29.5207  30.8613  31.4375
    33.3941  33.7659  35.4149  36.9044  37.6732  39.5863  40.5106  42.4104

     occupation numbers 
     1.0000   1.0000   1.0000   1.0000   1.0000   1.0000   1.0000   1.0000
     0.0000   0.0000   0.0000   0.0000   0.0000   0.0000   0.0000   0.0000
     0.0000   0.0000   0.0000   0.0000   0.0000   0.0000   0.0000   0.0000
     0.0000   0.0000   0.0000   0.0000   0.0000   0.0000   0.0000   0.0000

          k = 0.9375 1.4073 0.2990 (  2372 PWs)   bands (ev):

   -10.8670 -10.6694  -1.4019  -1.3237   0.8013   1.1903   1.2288   2.1839
    12.9802  13.5287  13.7114  15.2664  15.5311  18.2203  20.5891  20.8638
    23.1184  23.8156  24.8270  26.0619  28.2113  29.1883  30.9989  31.9096
    33.2952  34.5012  35.0293  36.0388  38.4351  40.2282  41.0338  43.4410

     occupation numbers 
     1.0000   1.0000   1.0000   1.0000   1.0000   1.0000   1.0000   1.0000
     0.0000   0.0000   0.0000   0.0000   0.0000   0.0000   0.0000   0.0000
     0.0000   0.0000   0.0000   0.0000   0.0000   0.0000   0.0000   0.0000
     0.0000   0.0000   0.0000   0.0000   0.0000   0.0000   0.0000   0.0000

          k = 0.9375 1.4795 0.0000 (  2360 PWs)   bands (ev):

   -11.6211 -11.3813  -0.1692   0.2040   0.2697   1.5056   1.8397   1.8779
    12.4959  14.7269  15.1628  15.4842  15.7010  18.0962  18.9310  19.0463
    22.0104  22.4184  25.4598  26.2362  29.0610  30.4997  31.8405  32.3523
    33.7525  34.3189  35.5069  35.7933  38.6298  41.2763  41.2908  42.8822

     occupation numbers 
     1.0000   1.0000   1.0000   1.0000   1.0000   1.0000   1.0000   1.0000
     0.0000   0.0000   0.0000   0.0000   0.0000   0.0000   0.0000   0.0000
     0.0000   0.0000   0.0000   0.0000   0.0000   0.0000   0.0000   0.0000
     0.0000   0.0000   0.0000   0.0000   0.0000   0.0000   0.0000   0.0000

          k = 0.9375 1.4795 0.0598 (  2363 PWs)   bands (ev):

   -11.6059 -11.3982  -0.0731   0.2083   0.2654   1.3714   1.8422   1.8753
    12.7908  14.7545  15.1201  15.4935  15.7015  17.5552  18.9417  19.0397
    22.0346  22.3868  25.8934  26.3207  29.1256  30.5200  31.9119  32.2345
    33.3554  34.3450  35.4057  36.4302  38.4463  40.6415  41.6575  42.0158

     occupation numbers 
     1.0000   1.0000   1.0000   1.0000   1.0000   1.0000   1.0000   1.0000
     0.0000   0.0000   0.0000   0.0000   0.0000   0.0000   0.0000   0.0000
     0.0000   0.0000   0.0000   0.0000   0.0000   0.0000   0.0000   0.0000
     0.0000   0.0000   0.0000   0.0000   0.0000   0.0000   0.0000   0.0000

          k = 0.9375 1.4795 0.1196 (  2361 PWs)   bands (ev):

   -11.5635 -11.4437   0.1965   0.2206   0.2551   1.0261   1.8492   1.8683
    13.6030  14.8369  15.0069  15.4836  15.6965  16.3810  18.9652  19.0210
    22.1003  22.3031  26.4326  26.6144  29.6578  30.7123  31.6731  31.9412
    33.0124  33.5871  36.0434  37.6077  38.0628  39.8007  40.4805  42.7844

     occupation numbers 
     1.0000   1.0000   1.0000   1.0000   1.0000   1.0000   1.0000   1.0000
     0.0000   0.0000   0.0000   0.0000   0.0000   0.0000   0.0000   0.0000
     0.0000   0.0000   0.0000   0.0000   0.0000   0.0000   0.0000   0.0000
     0.0000   0.0000   0.0000   0.0000   0.0000   0.0000   0.0000   0.0000

          k = 0.9375 1.4795 0.1794 (  2368 PWs)   bands (ev):

   -11.5045 -11.5044   0.2362   0.2363   0.5948   0.5951   1.8586   1.8587
    14.6671  14.6674  15.0332  15.0334  15.7174  15.7176  18.9939  18.9941
    22.1967  22.1968  26.6630  26.6635  30.8749  30.8757  31.1864  31.1867
    33.0330  33.0332  37.2076  37.2079  38.6361  38.6364  41.1190  41.1193

     occupation numbers 
     1.0000   1.0000   1.0000   1.0000   1.0000   1.0000   1.0000   1.0000
     0.0000   0.0000   0.0000   0.0000   0.0000   0.0000   0.0000   0.0000
     0.0000   0.0000   0.0000   0.0000   0.0000   0.0000   0.0000   0.0000
     0.0000   0.0000   0.0000   0.0000   0.0000   0.0000   0.0000   0.0000

          k = 0.9375 1.4795 0.2392 (  2361 PWs)   bands (ev):

   -11.5635 -11.4437   0.1965   0.2206   0.2551   1.0261   1.8492   1.8683
    13.6030  14.8369  15.0069  15.4836  15.6964  16.3810  18.9652  19.0210
    22.1003  22.3031  26.4321  26.6150  29.6576  30.7124  31.6732  31.9413
    33.0122  33.5871  36.0432  37.6078  38.0629  39.8007  40.4807  42.7843

     occupation numbers 
     1.0000   1.0000   1.0000   1.0000   1.0000   1.0000   1.0000   1.0000
     0.0000   0.0000   0.0000   0.0000   0.0000   0.0000   0.0000   0.0000
     0.0000   0.0000   0.0000   0.0000   0.0000   0.0000   0.0000   0.0000
     0.0000   0.0000   0.0000   0.0000   0.0000   0.0000   0.0000   0.0000

          k = 0.9375 1.4795 0.2990 (  2363 PWs)   bands (ev):

   -11.6059 -11.3982  -0.0731   0.2083   0.2654   1.3714   1.8422   1.8753
    12.7908  14.7545  15.1201  15.4935  15.7015  17.5552  18.9417  19.0397
    22.0346  22.3868  25.8932  26.3209  29.1255  30.5200  31.9120  32.2345
    33.3553  34.3450  35.4056  36.4302  38.4463  40.6418  41.6574  42.0159

     occupation numbers 
     1.0000   1.0000   1.0000   1.0000   1.0000   1.0000   1.0000   1.0000
     0.0000   0.0000   0.0000   0.0000   0.0000   0.0000   0.0000   0.0000
     0.0000   0.0000   0.0000   0.0000   0.0000   0.0000   0.0000   0.0000
     0.0000   0.0000   0.0000   0.0000   0.0000   0.0000   0.0000   0.0000

          k = 0.9375 1.5516 0.0000 (  2359 PWs)   bands (ev):

   -12.1809 -11.9322  -0.8410   0.8809   1.6644   1.7048   2.5589   2.5866
    11.8080  15.5957  15.7346  16.2702  16.5739  17.4243  17.4856  17.5980
    20.9138  21.1489  24.9477  28.1162  30.5775  30.9195  31.5549  32.9693
    34.3777  35.2383  35.6995  36.6603  38.2264  39.5676  42.4538  43.1034

     occupation numbers 
     1.0000   1.0000   1.0000   1.0000   1.0000   1.0000   1.0000   1.0000
     0.0000   0.0000   0.0000   0.0000   0.0000   0.0000   0.0000   0.0000
     0.0000   0.0000   0.0000   0.0000   0.0000   0.0000   0.0000   0.0000
     0.0000   0.0000   0.0000   0.0000   0.0000   0.0000   0.0000   0.0000

          k = 0.9375 1.5516 0.0598 (  2360 PWs)   bands (ev):

   -12.1651 -11.9497  -0.7424   0.7421   1.6672   1.7021   2.5607   2.5847
    12.1147  15.5890  15.7240  16.2930  16.5507  17.0284  17.4300  17.4818
    20.9291  21.1329  25.5776  28.1487  30.5914  30.9790  31.5369  32.7469
    33.9222  34.5776  36.4516  37.3793  38.0760  39.3399  42.2572  43.0997

     occupation numbers 
     1.0000   1.0000   1.0000   1.0000   1.0000   1.0000   1.0000   1.0000
     0.0000   0.0000   0.0000   0.0000   0.0000   0.0000   0.0000   0.0000
     0.0000   0.0000   0.0000   0.0000   0.0000   0.0000   0.0000   0.0000
     0.0000   0.0000   0.0000   0.0000   0.0000   0.0000   0.0000   0.0000

          k = 0.9375 1.5516 0.1196 (  2363 PWs)   bands (ev):

   -12.1213 -11.9970  -0.4639   0.3859   1.6747   1.6948   2.5656   2.5795
    12.9669  15.4283  15.6982  15.8677  16.3691  16.5234  17.4413  17.4713
    20.9708  21.0887  26.8895  28.1736  30.7177  31.1464  31.4787  32.2629
    33.2223  33.6058  37.5923  37.8776  38.3411  39.6239  41.3735  42.6819

     occupation numbers 
     1.0000   1.0000   1.0000   1.0000   1.0000   1.0000   1.0000   1.0000
     0.0000   0.0000   0.0000   0.0000   0.0000   0.0000   0.0000   0.0000
     0.0000   0.0000   0.0000   0.0000   0.0000   0.0000   0.0000   0.0000
     0.0000   0.0000   0.0000   0.0000   0.0000   0.0000   0.0000   0.0000

          k = 0.9375 1.5516 0.1794 (  2362 PWs)   bands (ev):

   -12.0601 -12.0600  -0.0580  -0.0577   1.6848   1.6848   2.5725   2.5725
    14.1980  14.1985  15.6892  15.6892  16.4466  16.4467  17.4565  17.4566
    21.0290  21.0290  27.8910  27.8921  31.2082  31.2086  31.4908  31.4911
    33.0427  33.0428  37.8551  37.8553  39.6259  39.6261  41.3548  41.3550

     occupation numbers 
     1.0000   1.0000   1.0000   1.0000   1.0000   1.0000   1.0000   1.0000
     0.0000   0.0000   0.0000   0.0000   0.0000   0.0000   0.0000   0.0000
     0.0000   0.0000   0.0000   0.0000   0.0000   0.0000   0.0000   0.0000
     0.0000   0.0000   0.0000   0.0000   0.0000   0.0000   0.0000   0.0000

          k = 0.9375 1.5516 0.2392 (  2363 PWs)   bands (ev):

   -12.1213 -11.9970  -0.4639   0.3859   1.6747   1.6948   2.5656   2.5795
    12.9669  15.4283  15.6982  15.8677  16.3691  16.5234  17.4413  17.4713
    20.9708  21.0887  26.8895  28.1736  30.7176  31.1465  31.4787  32.2629
    33.2224  33.6057  37.5921  37.8775  38.3412  39.6242  41.3735  42.6820

     occupation numbers 
     1.0000   1.0000   1.0000   1.0000   1.0000   1.0000   1.0000   1.0000
     0.0000   0.0000   0.0000   0.0000   0.0000   0.0000   0.0000   0.0000
     0.0000   0.0000   0.0000   0.0000   0.0000   0.0000   0.0000   0.0000
     0.0000   0.0000   0.0000   0.0000   0.0000   0.0000   0.0000   0.0000

          k = 0.9375 1.5516 0.2990 (  2360 PWs)   bands (ev):

   -12.1651 -11.9497  -0.7424   0.7421   1.6672   1.7021   2.5607   2.5847
    12.1147  15.5890  15.7240  16.2930  16.5507  17.0284  17.4300  17.4818
    20.9291  21.1329  25.5776  28.1487  30.5914  30.9790  31.5369  32.7469
    33.9221  34.5776  36.4515  37.3793  38.0759  39.3402  42.2571  43.1000

     occupation numbers 
     1.0000   1.0000   1.0000   1.0000   1.0000   1.0000   1.0000   1.0000
     0.0000   0.0000   0.0000   0.0000   0.0000   0.0000   0.0000   0.0000
     0.0000   0.0000   0.0000   0.0000   0.0000   0.0000   0.0000   0.0000
     0.0000   0.0000   0.0000   0.0000   0.0000   0.0000   0.0000   0.0000

          k = 0.9375 1.6238 0.0000 (  2371 PWs)   bands (ev):

   -12.5564 -12.3016  -1.2941   0.4566   2.8006   2.8224   3.2251   3.2421
    11.3486  15.4805  15.5628  16.3302  16.3750  17.2376  17.4431  17.6689
    20.1176  20.3092  24.5709  30.1189  30.2280  30.6721  32.1667  33.3626
    35.2610  36.1404  37.5947  37.8871  38.0839  38.6732  41.5086  43.4721

     occupation numbers 
     1.0000   1.0000   1.0000   1.0000   1.0000   1.0000   1.0000   1.0000
     0.0000   0.0000   0.0000   0.0000   0.0000   0.0000   0.0000   0.0000
     0.0000   0.0000   0.0000   0.0000   0.0000   0.0000   0.0000   0.0000
     0.0000   0.0000   0.0000   0.0000   0.0000   0.0000   0.0000   0.0000

          k = 0.9375 1.6238 0.0598 (  2367 PWs)   bands (ev):

   -12.5402 -12.3196  -1.1941   0.3151   2.8022   2.8210   3.2262   3.2409
    11.6612  15.4759  15.5587  16.3330  16.3719  16.6403  17.4522  17.6535
    20.1311  20.2972  25.2792  30.0310  30.2544  30.6859  32.2653  33.1890
    34.7706  35.5081  37.8036  37.8957  38.8548  38.9021  41.2168  42.4361

     occupation numbers 
     1.0000   1.0000   1.0000   1.0000   1.0000   1.0000   1.0000   1.0000
     0.0000   0.0000   0.0000   0.0000   0.0000   0.0000   0.0000   0.0000
     0.0000   0.0000   0.0000   0.0000   0.0000   0.0000   0.0000   0.0000
     0.0000   0.0000   0.0000   0.0000   0.0000   0.0000   0.0000   0.0000

          k = 0.9375 1.6238 0.1196 (  2366 PWs)   bands (ev):

   -12.4953 -12.3680  -0.9113  -0.0477   2.8063   2.8172   3.2292   3.2376
    12.5305  15.1910  15.5485  15.5929  16.3409  16.3633  17.4944  17.6111
    20.1673  20.2633  26.8670  29.6351  30.3343  30.6373  32.5178  32.8323
    34.0490  34.5512  37.6208  37.6878  40.1566  40.4752  40.9784  41.5793

     occupation numbers 
     1.0000   1.0000   1.0000   1.0000   1.0000   1.0000   1.0000   1.0000
     0.0000   0.0000   0.0000   0.0000   0.0000   0.0000   0.0000   0.0000
     0.0000   0.0000   0.0000   0.0000   0.0000   0.0000   0.0000   0.0000
     0.0000   0.0000   0.0000   0.0000   0.0000   0.0000   0.0000   0.0000

          k = 0.9375 1.6238 0.1794 (  2356 PWs)   bands (ev):

   -12.4326 -12.4325  -0.4990  -0.4987   2.8117   2.8120   3.2332   3.2334
    13.7941  13.7946  15.5391  15.5395  16.3517  16.3521  17.5529  17.5530
    20.2159  20.2160  28.5405  28.5421  30.4719  30.4719  32.6948  32.6948
    33.8949  33.8950  37.5590  37.5593  41.0177  41.0178  41.8571  41.8573

     occupation numbers 
     1.0000   1.0000   1.0000   1.0000   1.0000   1.0000   1.0000   1.0000
     0.0000   0.0000   0.0000   0.0000   0.0000   0.0000   0.0000   0.0000
     0.0000   0.0000   0.0000   0.0000   0.0000   0.0000   0.0000   0.0000
     0.0000   0.0000   0.0000   0.0000   0.0000   0.0000   0.0000   0.0000

          k = 0.9375 1.6238 0.2392 (  2366 PWs)   bands (ev):

   -12.4953 -12.3680  -0.9113  -0.0477   2.8063   2.8172   3.2292   3.2376
    12.5305  15.1910  15.5485  15.5929  16.3409  16.3633  17.4944  17.6111
    20.1673  20.2633  26.8670  29.6351  30.3343  30.6373  32.5178  32.8323
    34.0490  34.5512  37.6208  37.6878  40.1566  40.4752  40.9784  41.5793

     occupation numbers 
     1.0000   1.0000   1.0000   1.0000   1.0000   1.0000   1.0000   1.0000
     0.0000   0.0000   0.0000   0.0000   0.0000   0.0000   0.0000   0.0000
     0.0000   0.0000   0.0000   0.0000   0.0000   0.0000   0.0000   0.0000
     0.0000   0.0000   0.0000   0.0000   0.0000   0.0000   0.0000   0.0000

          k = 0.9375 1.6238 0.2990 (  2367 PWs)   bands (ev):

   -12.5402 -12.3196  -1.1941   0.3151   2.8022   2.8210   3.2262   3.2409
    11.6612  15.4759  15.5587  16.3330  16.3719  16.6403  17.4522  17.6535
    20.1311  20.2972  25.2792  30.0310  30.2544  30.6859  32.2653  33.1890
    34.7706  35.5081  37.8036  37.8957  38.8548  38.9021  41.2168  42.4361

     occupation numbers 
     1.0000   1.0000   1.0000   1.0000   1.0000   1.0000   1.0000   1.0000
     0.0000   0.0000   0.0000   0.0000   0.0000   0.0000   0.0000   0.0000
     0.0000   0.0000   0.0000   0.0000   0.0000   0.0000   0.0000   0.0000
     0.0000   0.0000   0.0000   0.0000   0.0000   0.0000   0.0000   0.0000

     the Fermi energy is     6.9288 ev
     (compare with:     6.9288 eV, computed in scf)

     Writing all to output data dir ./C.save/
 
     init_run     :      0.02s CPU      0.09s WALL (       1 calls)
     electrons    :    317.23s CPU    351.65s WALL (       1 calls)

     Called by init_run:
     wfcinit      :      0.00s CPU      0.03s WALL (       1 calls)
     wfcinit:wfcr :      4.43s CPU      4.84s WALL (    1536 calls)
     potinit      :      0.00s CPU      0.01s WALL (       1 calls)
     hinit0       :      0.00s CPU      0.03s WALL (       1 calls)

     Called by electrons:
     c_bands      :    317.19s CPU    351.61s WALL (       1 calls)
     v_of_rho     :      0.00s CPU      0.00s WALL (       1 calls)
     v_h          :      0.00s CPU      0.00s WALL (       1 calls)
     v_xc         :      0.00s CPU      0.00s WALL (       1 calls)

     Called by c_bands:
     init_us_2    :      0.03s CPU      0.04s WALL (    1536 calls)
     init_us_2:cp :      0.03s CPU      0.03s WALL (    1536 calls)
     ccgdiagg     :    300.22s CPU    330.70s WALL (    5027 calls)
     wfcrot       :     14.38s CPU     15.36s WALL (    5027 calls)

     Called by sum_band:

     Called by *cgdiagg:
     h_psi        :    216.74s CPU    238.18s WALL ( 2095735 calls)

     Called by h_psi:
     h_psi:calbec :     23.02s CPU     25.31s WALL ( 2095735 calls)
     vloc_psi     :    172.24s CPU    189.16s WALL ( 2095735 calls)
     add_vuspsi   :      8.86s CPU      9.95s WALL ( 2095735 calls)
     hs_1psi      :    216.06s CPU    237.65s WALL ( 2090708 calls)
     s_1psi       :     25.35s CPU     27.78s WALL ( 2090708 calls)

     General routines
     calbec       :     35.72s CPU     39.73s WALL ( 4186443 calls)
     fft          :      0.00s CPU      0.03s WALL (      11 calls)
     ffts         :      0.00s CPU      0.00s WALL (       1 calls)
     fftw         :    160.17s CPU    175.81s WALL ( 4503144 calls)
     interpolate  :      0.00s CPU      0.00s WALL (       1 calls)
     davcio       :      0.10s CPU      0.97s WALL (    3072 calls)
 
     Parallel routines
 
     PWSCF        :   5m32.56s CPU   6m22.83s WALL

 
   This run was terminated on:  21:48:58  17Mar2024            

=------------------------------------------------------------------------------=
   JOB DONE.
=------------------------------------------------------------------------------=
