 
             +---------------------------------------------------+
             |                                                   |
             |                   WANNIER90                       |
             |                                                   |
             +---------------------------------------------------+
             |                                                   |
             |        Welcome to the Maximally-Localized         |
             |        Generalized Wannier Functions code         |
             |            http://www.wannier.org                 |
             |                                                   |
             |                                                   |
             |  Wannier90 Developer Group:                       |
             |    Giovanni Pizzi    (EPFL)                       |
             |    Valerio Vitale    (Cambridge)                  |
             |    David Vanderbilt  (Rutgers University)         |
             |    Nicola Marzari    (EPFL)                       |
             |    Ivo Souza         (Universidad del Pais Vasco) |
             |    Arash A. Mostofi  (Imperial College London)    |
             |    Jonathan R. Yates (University of Oxford)       |
             |                                                   |
             |  For the full list of Wannier90 3.x authors,      |
             |  please check the code documentation and the      |
             |  README on the GitHub page of the code            |
             |                                                   |
             |                                                   |
             |  Please cite                                      |
             |                                                   |
             |  [ref] "Wannier90 as a community code:            |
             |        new features and applications",            |
             |        G. Pizzi et al., J. Phys. Cond. Matt. 32,  |
             |        165902 (2020).                             |
             |        http://doi.org/10.1088/1361-648X/ab51ff    |
             |                                                   |
             |  in any publications arising from the use of      |
             |  this code. For the method please cite            |
             |                                                   |
             |  [ref] "Maximally Localized Generalised Wannier   |
             |         Functions for Composite Energy Bands"     |
             |         N. Marzari and D. Vanderbilt              |
             |         Phys. Rev. B 56 12847 (1997)              |
             |                                                   |
             |  [ref] "Maximally Localized Wannier Functions     |
             |         for Entangled Energy Bands"               |
             |         I. Souza, N. Marzari and D. Vanderbilt    |
             |         Phys. Rev. B 65 035109 (2001)             |
             |                                                   |
             |                                                   |
             | Copyright (c) 1996-2020                           |
             |        The Wannier90 Developer Group and          |
             |        individual contributors                    |
             |                                                   |
             |      Release: 3.1.0        5th March    2020      |
             |                                                   |
             | This program is free software; you can            |
             | redistribute it and/or modify it under the terms  |
             | of the GNU General Public License as published by |
             | the Free Software Foundation; either version 2 of |
             | the License, or (at your option) any later version|
             |                                                   |
             | This program is distributed in the hope that it   |
             | will be useful, but WITHOUT ANY WARRANTY; without |
             | even the implied warranty of MERCHANTABILITY or   |
             | FITNESS FOR A PARTICULAR PURPOSE. See the GNU     |
             | General Public License for more details.          |
             |                                                   |
             | You should have received a copy of the GNU General|
             | Public License along with this program; if not,   |
             | write to the Free Software Foundation, Inc.,      |
             | 675 Mass Ave, Cambridge, MA 02139, USA.           |
             |                                                   |
             +---------------------------------------------------+
             |    Execution started on 10Jun2024 at 14:21:28     |
             +---------------------------------------------------+
 
 ******************************************************************************
 * -> Using CODATA 2006 constant values                                       *
 *    (http://physics.nist.gov/cuu/Constants/index.html)                      *
 * -> Using Bohr value from CODATA                                            *
 ******************************************************************************
 

 Running in parallel on  32 CPUs

 
                                    ------
                                    SYSTEM
                                    ------
 
                              Lattice Vectors (Ang)
                    a_1     2.495025   0.000000   0.000000
                    a_2    -1.247513   2.160755   0.000000
                    a_3     0.000000   0.000000   6.617224
 
                   Unit Cell Volume:      35.67437  (Ang^3)
 
                        Reciprocal-Space Vectors (Ang^-1)
                    b_1     2.518285   1.453933   0.000000
                    b_2     0.000000   2.907866   0.000000
                    b_3     0.000000   0.000000   0.949520
  
 *----------------------------------------------------------------------------*
 |   Site       Fractional Coordinate          Cartesian Coordinate (Ang)     |
 +----------------------------------------------------------------------------+
 | B    1   0.99999   0.99999   0.26429   |    1.24750   2.16073   1.74886    |
 | B    2   0.66665   0.33331   0.76491   |    1.24749   0.72021   5.06159    |
 | N    1   0.66665   0.33332   0.26427   |    1.24750   0.72022   1.74875    |
 | N    2   0.99998   0.99998   0.76494   |    1.24748   2.16071   5.06181    |
 *----------------------------------------------------------------------------*
                                ------------
                                K-POINT GRID
                                ------------
  
             Grid size = 16 x 16 x  6      Total points = 1536
  
  
 *---------------------------------- MAIN ------------------------------------*
 |  Number of Wannier Functions               :                16             |
 |  Number of Objective Wannier Functions     :                16             |
 |  Number of input Bloch states              :                32             |
 |  Output verbosity (1=low, 5=high)          :                 1             |
 |  Timing Level (1=low, 5=high)              :                 1             |
 |  Optimisation (0=memory, 3=speed)          :                 3             |
 |  Length Unit                               :               Ang             |
 |  Post-processing setup (write *.nnkp)      :                 F             |
 |  Using Gamma-only branch of algorithms     :                 F             |
 *----------------------------------------------------------------------------*
 *------------------------------- WANNIERISE ---------------------------------*
 |  Total number of iterations                :              4800             |
 |  Number of CG steps before reset           :                 5             |
 |  Trial step length for line search         :             2.000             |
 |  Convergence tolerence                     :         0.100E-09             |
 |  Convergence window                        :                -1             |
 |  Iterations between writing output         :                50             |
 |  Iterations between backing up to disk     :               100             |
 |  Write r^2_nm to file                      :                 F             |
 |  Write xyz WF centres to file              :                 F             |
 |  Write on-site energies <0n|H|0n> to file  :                 F             |
 |  Use guiding centre to control phases      :                 T             |
 |  Use phases for initial projections        :                 F             |
 |  Iterations before starting guiding centres:                 0             |
 |  Iterations between using guiding centres  :                 1             |
 *----------------------------------------------------------------------------*
 *------------------------------- DISENTANGLE --------------------------------*
 |  Using band disentanglement                :                 T             |
 |  Total number of iterations                :             50000             |
 |  Mixing ratio                              :             0.500             |
 |  Convergence tolerence                     :         1.000E-10             |
 |  Convergence window                        :                 3             |
 *----------------------------------------------------------------------------*
 *-------------------------------- PLOTTING ----------------------------------*
 |  Plotting interpolated bandstructure       :                 T             |
 |   Number of K-path sections                :                 3             |
 |   Divisions along first K-path section     :               100             |
 |   Output format                            :           gnuplot             |
 |   Output mode                              :               s-k             |
 *----------------------------------------------------------------------------*
 |   K-space path sections:                                                   |
 |    From: G       0.000  0.000  0.000     To: M       0.500 -0.500  0.000   |
 |    From: M       0.500 -0.500  0.000     To: K       0.667 -0.333  0.000   |
 |    From: K       0.667 -0.333  0.000     To: G       0.000  0.000  0.000   |
 *----------------------------------------------------------------------------*
 Time to read parameters        0.137 (sec)

 *---------------------------------- K-MESH ----------------------------------*
 +----------------------------------------------------------------------------+
 |                    Distance to Nearest-Neighbour Shells                    |
 |                    ------------------------------------                    |
 |          Shell             Distance (Ang^-1)          Multiplicity         |
 |          -----             -----------------          ------------         |
 |             1                   0.158253                      2            |
 |             2                   0.181742                      6            |
 |             3                   0.240986                     12            |
 |             4                   0.314786                      6            |
 |             5                   0.316507                      2            |
 |             6                   0.352327                     12            |
 |             7                   0.363483                      6            |
 |             8                   0.364975                     12            |
 |             9                   0.396439                     12            |
 |            10                   0.446393                     12            |
 |            11                   0.474760                      2            |
 |            12                   0.480843                     12            |
 |            13                   0.481971                     12            |
 |            14                   0.506216                     24            |
 |            15                   0.508357                     12            |
 |            16                   0.545225                      6            |
 |            17                   0.567727                     12            |
 |            18                   0.569638                     12            |
 |            19                   0.575662                     24            |
 |            20                   0.597927                     12            |
 |            21                   0.629571                      6            |
 |            22                   0.630434                     12            |
 |            23                   0.633013                      2            |
 |            24                   0.649157                     12            |
 |            25                   0.655279                     12            |
 |            26                   0.658586                     12            |
 |            27                   0.674117                     24            |
 |            28                   0.675727                     24            |
 |            29                   0.704653                     12            |
 |            30                   0.706962                     12            |
 |            31                   0.722957                     12            |
 |            32                   0.726966                      6            |
 |            33                   0.727713                     24            |
 |            34                   0.729949                     12            |
 |            35                   0.743992                     12            |
 |            36                   0.788516                     12            |
 +----------------------------------------------------------------------------+
 | The b-vectors are chosen automatically                                     |
 | The following shells are used:   1,  2                                     |
 +----------------------------------------------------------------------------+
 |                        Shell   # Nearest-Neighbours                        |
 |                        -----   --------------------                        |
 |                          1               2                                 |
 |                          2               6                                 |
 +----------------------------------------------------------------------------+
 | Completeness relation is fully satisfied [Eq. (B1), PRB 56, 12847 (1997)]  |
 +----------------------------------------------------------------------------+
 |                  b_k Vectors (Ang^-1) and Weights (Ang^2)                  |
 |                  ----------------------------------------                  |
 |            No.         b_k(x)      b_k(y)      b_k(z)        w_b           |
 |            ---        --------------------------------     --------        |
 |             1         0.000000    0.000000    0.158253    19.964774        |
 |             2         0.000000    0.000000   -0.158253    19.964774        |
 |             3         0.000000    0.181742    0.000000    10.091833        |
 |             4         0.157393    0.090871    0.000000    10.091833        |
 |             5         0.000000   -0.181742    0.000000    10.091833        |
 |             6         0.157393   -0.090871    0.000000    10.091833        |
 |             7        -0.157393   -0.090871    0.000000    10.091833        |
 |             8        -0.157393    0.090871    0.000000    10.091833        |
 +----------------------------------------------------------------------------+
 |                           b_k Directions (Ang^-1)                          |
 |                           -----------------------                          |
 |            No.           x           y           z                         |
 |            ---        --------------------------------                     |
 |             1         0.000000    0.000000    0.158253                     |
 |             2         0.000000    0.181742    0.000000                     |
 |             3         0.157393    0.090871    0.000000                     |
 |             4         0.157393   -0.090871    0.000000                     |
 +----------------------------------------------------------------------------+
  
 Time to get kmesh              0.930 (sec)
 *============================================================================*
 |                              MEMORY ESTIMATE                               |
 |         Maximum RAM allocated during each phase of the calculation         |
 *============================================================================*
 |                        Disentanglement          271.86 Mb                  |
 |                            Wannierise:          140.52 Mb                  |
 |                          plot_wannier:          140.52 Mb                  |
 *----------------------------------------------------------------------------*
  
 Starting a new Wannier90 calculation ...


 Reading overlaps from hBN.mmn    :  Created on 10Jun2024 at 13:15:14

 Reading projections from hBN.amn :  Created on 10Jun2024 at 13:13:38

 Time to read overlaps         12.863 (sec)

 *------------------------------- DISENTANGLE --------------------------------*
 +----------------------------------------------------------------------------+
 |                              Energy  Windows                               |
 |                              ---------------                               |
 |                   Outer:  -14.00000  to   45.00000  (eV)                   |
 |                   Inner:  -14.00000  to   14.37530  (eV)                   |
 +----------------------------------------------------------------------------+
   Number of target bands to extract:   16

                   Unitarised projection of Wannier functions                  
                   ------------------------------------------                  
   A_mn = <psi_m|g_n> --> S = A.A^+ --> U = S^-1/2.A
   In dis_project... done
   Using an inner window (linner = T)
   In dis_proj_froz... done

                   Extraction of optimally-connected subspace                  
                   ------------------------------------------                  
 +---------------------------------------------------------------------+<-- DIS
 |  Iter     Omega_I(i-1)      Omega_I(i)      Delta (frac.)    Time   |<-- DIS
 +---------------------------------------------------------------------+<-- DIS
       1      18.71529449      16.46257223       1.368E-01      0.00    <-- DIS
       2      16.43686410      15.66920833       4.899E-02      0.03    <-- DIS
       3      15.80619539      15.08993659       4.747E-02      0.07    <-- DIS
       4      15.23853917      14.63232095       4.143E-02      0.10    <-- DIS
       5      14.76231775      14.25877612       3.531E-02      0.14    <-- DIS
       6      14.36697514      13.94695235       3.012E-02      0.17    <-- DIS
       7      14.03643729      13.68209189       2.590E-02      0.20    <-- DIS
       8      13.75673566      13.45394359       2.251E-02      0.24    <-- DIS
       9      13.51704026      13.25512016       1.976E-02      0.27    <-- DIS
      10      13.30919691      13.08013746       1.751E-02      0.30    <-- DIS
      11      13.12707272      12.92482228       1.565E-02      0.33    <-- DIS
      12      12.96600844      12.78593233       1.408E-02      0.37    <-- DIS
      13      12.82241301      12.66090389       1.276E-02      0.40    <-- DIS
      14      12.69347534      12.54767929       1.162E-02      0.43    <-- DIS
      15      12.57696139      12.44458571       1.064E-02      0.46    <-- DIS
      16      12.47107076      12.35024824       9.783E-03      0.50    <-- DIS
      17      12.37433432      12.26352600       9.036E-03      0.53    <-- DIS
      18      12.28554007      12.18346450       8.378E-03      0.56    <-- DIS
      19      12.20367851      12.10925935       7.797E-03      0.59    <-- DIS
      20      12.12790189      12.04022835       7.282E-03      0.63    <-- DIS
      21      12.05749308      11.97578958       6.822E-03      0.66    <-- DIS
      22      11.99184163      11.91544413       6.412E-03      0.69    <-- DIS
      23      11.93042498      11.85876219       6.043E-03      0.72    <-- DIS
      24      11.87279357      11.80537194       5.711E-03      0.75    <-- DIS
      25      11.81855889      11.75495034       5.411E-03      0.79    <-- DIS
      26      11.76738376      11.70721573       5.139E-03      0.82    <-- DIS
      27      11.71897446      11.66192159       4.892E-03      0.85    <-- DIS
      28      11.67307415      11.61885144       4.667E-03      0.88    <-- DIS
      29      11.62945749      11.57781451       4.461E-03      0.91    <-- DIS
      30      11.58792612      11.53864218       4.271E-03      0.95    <-- DIS
      31      11.54830486      11.50118493       4.097E-03      0.98    <-- DIS
      32      11.51043852      11.46530976       3.936E-03      1.01    <-- DIS
      33      11.47418923      11.43089802       3.787E-03      1.04    <-- DIS
      34      11.43943411      11.39784355       3.649E-03      1.07    <-- DIS
      35      11.40606335      11.36605113       3.520E-03      1.10    <-- DIS
      36      11.37397856      11.33543505       3.400E-03      1.14    <-- DIS
      37      11.34309127      11.30591801       3.288E-03      1.17    <-- DIS
      38      11.31332180      11.27743008       3.183E-03      1.20    <-- DIS
      39      11.28459814      11.24990785       3.084E-03      1.23    <-- DIS
      40      11.25685507      11.22329366       2.990E-03      1.26    <-- DIS
      41      11.23003334      11.19753497       2.902E-03      1.29    <-- DIS
      42      11.20407904      11.17258377       2.819E-03      1.33    <-- DIS
      43      11.17894294      11.14839609       2.740E-03      1.36    <-- DIS
      44      11.15458003      11.12493160       2.665E-03      1.39    <-- DIS
      45      11.13094904      11.10215318       2.594E-03      1.42    <-- DIS
      46      11.10801204      11.08002664       2.526E-03      1.45    <-- DIS
      47      11.08573411      11.05852037       2.461E-03      1.48    <-- DIS
      48      11.06408302      11.03760513       2.399E-03      1.52    <-- DIS
      49      11.04302897      11.01725382       2.340E-03      1.55    <-- DIS
      50      11.02254435      10.99744124       2.283E-03      1.58    <-- DIS
      51      11.00260352      10.97814394       2.228E-03      1.61    <-- DIS
      52      10.98318266      10.95934007       2.176E-03      1.64    <-- DIS
      53      10.96425955      10.94100920       2.125E-03      1.68    <-- DIS
      54      10.94581346      10.92313225       2.076E-03      1.71    <-- DIS
      55      10.92782503      10.90569131       2.030E-03      1.74    <-- DIS
      56      10.91027610      10.88866960       1.984E-03      1.77    <-- DIS
      57      10.89314965      10.87205132       1.941E-03      1.80    <-- DIS
      58      10.87642971      10.85582164       1.898E-03      1.83    <-- DIS
      59      10.86010124      10.83996654       1.857E-03      1.87    <-- DIS
      60      10.84415008      10.82447282       1.818E-03      1.90    <-- DIS
      61      10.82856286      10.80932800       1.779E-03      1.93    <-- DIS
      62      10.81332698      10.79452026       1.742E-03      1.96    <-- DIS
      63      10.79843049      10.78003842       1.706E-03      1.99    <-- DIS
      64      10.78386209      10.76587187       1.671E-03      2.03    <-- DIS
      65      10.76961108      10.75201053       1.637E-03      2.06    <-- DIS
      66      10.75566728      10.73844482       1.604E-03      2.09    <-- DIS
      67      10.74202103      10.72516563       1.572E-03      2.12    <-- DIS
      68      10.72866313      10.71216429       1.540E-03      2.15    <-- DIS
      69      10.71558485      10.69943252       1.510E-03      2.18    <-- DIS
      70      10.70277782      10.68696241       1.480E-03      2.22    <-- DIS
      71      10.69023410      10.67474643       1.451E-03      2.25    <-- DIS
      72      10.67794608      10.66277736       1.423E-03      2.28    <-- DIS
      73      10.66590649      10.65104829       1.395E-03      2.31    <-- DIS
      74      10.65410837      10.63955262       1.368E-03      2.34    <-- DIS
      75      10.64254507      10.62828400       1.342E-03      2.38    <-- DIS
      76      10.63121020      10.61723634       1.316E-03      2.41    <-- DIS
      77      10.62009763      10.60640382       1.291E-03      2.44    <-- DIS
      78      10.60920150      10.59578083       1.267E-03      2.47    <-- DIS
      79      10.59851616      10.58536195       1.243E-03      2.50    <-- DIS
      80      10.58803616      10.57514201       1.219E-03      2.53    <-- DIS
      81      10.57775630      10.56511601       1.196E-03      2.57    <-- DIS
      82      10.56767154      10.55527913       1.174E-03      2.60    <-- DIS
      83      10.55777703      10.54562672       1.152E-03      2.63    <-- DIS
      84      10.54806812      10.53615432       1.131E-03      2.66    <-- DIS
      85      10.53854028      10.52685759       1.110E-03      2.69    <-- DIS
      86      10.52918917      10.51773235       1.089E-03      2.72    <-- DIS
      87      10.52001059      10.50877458       1.069E-03      2.76    <-- DIS
      88      10.51100049      10.49998037       1.050E-03      2.79    <-- DIS
      89      10.50215493      10.49134594       1.030E-03      2.82    <-- DIS
      90      10.49347012      10.48286765       1.011E-03      2.85    <-- DIS
      91      10.48494239      10.47454194       9.929E-04      2.88    <-- DIS
      92      10.47656818      10.46636540       9.748E-04      2.92    <-- DIS
      93      10.46834404      10.45833470       9.571E-04      2.95    <-- DIS
      94      10.46026663      10.45044662       9.397E-04      2.98    <-- DIS
      95      10.45233271      10.44269803       9.226E-04      3.01    <-- DIS
      96      10.44453914      10.43508590       9.059E-04      3.04    <-- DIS
      97      10.43688286      10.42760728       8.895E-04      3.07    <-- DIS
      98      10.42936092      10.42025932       8.735E-04      3.11    <-- DIS
      99      10.42197044      10.41303922       8.577E-04      3.14    <-- DIS
     100      10.41470862      10.40594430       8.422E-04      3.17    <-- DIS
     101      10.40757275      10.39897191       8.271E-04      3.20    <-- DIS
     102      10.40056018      10.39211952       8.122E-04      3.23    <-- DIS
     103      10.39366835      10.38538462       7.976E-04      3.27    <-- DIS
     104      10.38689475      10.37876480       7.833E-04      3.30    <-- DIS
     105      10.38023696      10.37225771       7.693E-04      3.33    <-- DIS
     106      10.37369260      10.36586104       7.555E-04      3.36    <-- DIS
     107      10.36725937      10.35957257       7.420E-04      3.39    <-- DIS
     108      10.36093501      10.35339012       7.287E-04      3.43    <-- DIS
     109      10.35471734      10.34731156       7.157E-04      3.46    <-- DIS
     110      10.34860423      10.34133482       7.029E-04      3.49    <-- DIS
     111      10.34259359      10.33545789       6.904E-04      3.52    <-- DIS
     112      10.33668339      10.32967880       6.781E-04      3.55    <-- DIS
     113      10.33087166      10.32399562       6.660E-04      3.58    <-- DIS
     114      10.32515647      10.31840649       6.542E-04      3.62    <-- DIS
     115      10.31953592      10.31290957       6.425E-04      3.65    <-- DIS
     116      10.31400818      10.30750309       6.311E-04      3.68    <-- DIS
     117      10.30857146      10.30218529       6.199E-04      3.71    <-- DIS
     118      10.30322400      10.29695448       6.089E-04      3.74    <-- DIS
     119      10.29796409      10.29180899       5.981E-04      3.78    <-- DIS
     120      10.29279006      10.28674720       5.874E-04      3.81    <-- DIS
     121      10.28770028      10.28176752       5.770E-04      3.84    <-- DIS
     122      10.28269314      10.27686840       5.668E-04      3.87    <-- DIS
     123      10.27776709      10.27204833       5.567E-04      3.90    <-- DIS
     124      10.27292060      10.26730582       5.469E-04      3.93    <-- DIS
     125      10.26815219      10.26263942       5.372E-04      3.97    <-- DIS
     126      10.26346039      10.25804772       5.277E-04      4.00    <-- DIS
     127      10.25884378      10.25352933       5.183E-04      4.03    <-- DIS
     128      10.25430096      10.24908290       5.091E-04      4.06    <-- DIS
     129      10.24983058      10.24470710       5.001E-04      4.09    <-- DIS
     130      10.24543129      10.24040064       4.913E-04      4.13    <-- DIS
     131      10.24110180      10.23616224       4.826E-04      4.16    <-- DIS
     132      10.23684082      10.23199066       4.740E-04      4.19    <-- DIS
     133      10.23264711      10.22788469       4.656E-04      4.22    <-- DIS
     134      10.22851944      10.22384314       4.574E-04      4.25    <-- DIS
     135      10.22445662      10.21986484       4.493E-04      4.28    <-- DIS
     136      10.22045747      10.21594865       4.414E-04      4.32    <-- DIS
     137      10.21652085      10.21209346       4.335E-04      4.35    <-- DIS
     138      10.21264563      10.20829817       4.259E-04      4.38    <-- DIS
     139      10.20883071      10.20456172       4.183E-04      4.41    <-- DIS
     140      10.20507501      10.20088304       4.109E-04      4.44    <-- DIS
     141      10.20137749      10.19726113       4.037E-04      4.48    <-- DIS
     142      10.19773710      10.19369496       3.965E-04      4.51    <-- DIS
     143      10.19415283      10.19018356       3.895E-04      4.54    <-- DIS
     144      10.19062369      10.18672595       3.826E-04      4.57    <-- DIS
     145      10.18714870      10.18332120       3.759E-04      4.60    <-- DIS
     146      10.18372692      10.17996838       3.692E-04      4.63    <-- DIS
     147      10.18035742      10.17666657       3.627E-04      4.67    <-- DIS
     148      10.17703927      10.17341488       3.563E-04      4.70    <-- DIS
     149      10.17377158      10.17021245       3.500E-04      4.73    <-- DIS
     150      10.17055347      10.16705842       3.438E-04      4.76    <-- DIS
     151      10.16738408      10.16395194       3.377E-04      4.79    <-- DIS
     152      10.16426256      10.16089221       3.317E-04      4.83    <-- DIS
     153      10.16118810      10.15787840       3.258E-04      4.86    <-- DIS
     154      10.15815987      10.15490973       3.201E-04      4.89    <-- DIS
     155      10.15517708      10.15198544       3.144E-04      4.92    <-- DIS
     156      10.15223895      10.14910474       3.088E-04      4.95    <-- DIS
     157      10.14934472      10.14626691       3.033E-04      4.98    <-- DIS
     158      10.14649364      10.14347121       2.980E-04      5.02    <-- DIS
     159      10.14368496      10.14071692       2.927E-04      5.05    <-- DIS
     160      10.14091797      10.13800335       2.875E-04      5.08    <-- DIS
     161      10.13819196      10.13532980       2.824E-04      5.11    <-- DIS
     162      10.13550624      10.13269559       2.774E-04      5.14    <-- DIS
     163      10.13286012      10.13010007       2.725E-04      5.18    <-- DIS
     164      10.13025294      10.12754258       2.676E-04      5.21    <-- DIS
     165      10.12768405      10.12502248       2.629E-04      5.24    <-- DIS
     166      10.12515279      10.12253916       2.582E-04      5.27    <-- DIS
     167      10.12265854      10.12009198       2.536E-04      5.30    <-- DIS
     168      10.12020068      10.11768036       2.491E-04      5.33    <-- DIS
     169      10.11777861      10.11530370       2.447E-04      5.37    <-- DIS
     170      10.11539172      10.11296141       2.403E-04      5.40    <-- DIS
     171      10.11303944      10.11065294       2.360E-04      5.43    <-- DIS
     172      10.11072118      10.10837772       2.318E-04      5.46    <-- DIS
     173      10.10843639      10.10613520       2.277E-04      5.49    <-- DIS
     174      10.10618452      10.10392485       2.236E-04      5.53    <-- DIS
     175      10.10396501      10.10174613       2.197E-04      5.56    <-- DIS
     176      10.10177735      10.09959853       2.157E-04      5.59    <-- DIS
     177      10.09962100      10.09748153       2.119E-04      5.62    <-- DIS
     178      10.09749546      10.09539465       2.081E-04      5.65    <-- DIS
     179      10.09540022      10.09333738       2.044E-04      5.68    <-- DIS
     180      10.09333479      10.09130926       2.007E-04      5.72    <-- DIS
     181      10.09129868      10.08930979       1.971E-04      5.75    <-- DIS
     182      10.08929141      10.08733853       1.936E-04      5.78    <-- DIS
     183      10.08731253      10.08539501       1.901E-04      5.81    <-- DIS
     184      10.08536156      10.08347879       1.867E-04      5.84    <-- DIS
     185      10.08343806      10.08158943       1.834E-04      5.88    <-- DIS
     186      10.08154160      10.07972650       1.801E-04      5.91    <-- DIS
     187      10.07967172      10.07788957       1.768E-04      5.94    <-- DIS
     188      10.07782801      10.07607823       1.737E-04      5.97    <-- DIS
     189      10.07601005      10.07429207       1.705E-04      6.00    <-- DIS
     190      10.07421742      10.07253069       1.675E-04      6.03    <-- DIS
     191      10.07244972      10.07079369       1.644E-04      6.07    <-- DIS
     192      10.07070657      10.06908069       1.615E-04      6.10    <-- DIS
     193      10.06898755      10.06739132       1.586E-04      6.13    <-- DIS
     194      10.06729230      10.06572518       1.557E-04      6.16    <-- DIS
     195      10.06562044      10.06408193       1.529E-04      6.19    <-- DIS
     196      10.06397160      10.06246120       1.501E-04      6.23    <-- DIS
     197      10.06234541      10.06086263       1.474E-04      6.26    <-- DIS
     198      10.06074152      10.05928589       1.447E-04      6.29    <-- DIS
     199      10.05915959      10.05773062       1.421E-04      6.32    <-- DIS
     200      10.05759925      10.05619650       1.395E-04      6.35    <-- DIS
     201      10.05606019      10.05468318       1.370E-04      6.38    <-- DIS
     202      10.05454207      10.05319036       1.345E-04      6.42    <-- DIS
     203      10.05304456      10.05171772       1.320E-04      6.45    <-- DIS
     204      10.05156734      10.05026493       1.296E-04      6.48    <-- DIS
     205      10.05011009      10.04883170       1.272E-04      6.51    <-- DIS
     206      10.04867252      10.04741772       1.249E-04      6.54    <-- DIS
     207      10.04725431      10.04602269       1.226E-04      6.58    <-- DIS
     208      10.04585517      10.04464634       1.203E-04      6.61    <-- DIS
     209      10.04447479      10.04328836       1.181E-04      6.64    <-- DIS
     210      10.04311291      10.04194848       1.160E-04      6.67    <-- DIS
     211      10.04176923      10.04062643       1.138E-04      6.70    <-- DIS
     212      10.04044347      10.03932192       1.117E-04      6.74    <-- DIS
     213      10.03913536      10.03803470       1.096E-04      6.77    <-- DIS
     214      10.03784464      10.03676451       1.076E-04      6.80    <-- DIS
     215      10.03657103      10.03551108       1.056E-04      6.83    <-- DIS
     216      10.03531428      10.03427416       1.037E-04      6.86    <-- DIS
     217      10.03407414      10.03305350       1.017E-04      6.89    <-- DIS
     218      10.03285035      10.03184886       9.983E-05      6.93    <-- DIS
     219      10.03164266      10.03066001       9.797E-05      6.96    <-- DIS
     220      10.03045085      10.02948669       9.613E-05      6.99    <-- DIS
     221      10.02927465      10.02832868       9.433E-05      7.02    <-- DIS
     222      10.02811385      10.02718576       9.256E-05      7.05    <-- DIS
     223      10.02696822      10.02605769       9.082E-05      7.09    <-- DIS
     224      10.02583752      10.02494426       8.910E-05      7.12    <-- DIS
     225      10.02472153      10.02384525       8.742E-05      7.15    <-- DIS
     226      10.02362004      10.02276044       8.576E-05      7.18    <-- DIS
     227      10.02253283      10.02168963       8.414E-05      7.21    <-- DIS
     228      10.02145969      10.02063261       8.254E-05      7.24    <-- DIS
     229      10.02040042      10.01958918       8.097E-05      7.28    <-- DIS
     230      10.01935480      10.01855913       7.942E-05      7.31    <-- DIS
     231      10.01832264      10.01754228       7.790E-05      7.34    <-- DIS
     232      10.01730373      10.01653842       7.640E-05      7.37    <-- DIS
     233      10.01629789      10.01554738       7.494E-05      7.40    <-- DIS
     234      10.01530493      10.01456896       7.349E-05      7.44    <-- DIS
     235      10.01432465      10.01360297       7.207E-05      7.47    <-- DIS
     236      10.01335688      10.01264925       7.067E-05      7.50    <-- DIS
     237      10.01240142      10.01170761       6.930E-05      7.53    <-- DIS
     238      10.01145811      10.01077787       6.795E-05      7.56    <-- DIS
     239      10.01052676      10.00985987       6.662E-05      7.60    <-- DIS
     240      10.00960721      10.00895344       6.532E-05      7.63    <-- DIS
     241      10.00869928      10.00805841       6.404E-05      7.66    <-- DIS
     242      10.00780280      10.00717462       6.277E-05      7.69    <-- DIS
     243      10.00691762      10.00630190       6.153E-05      7.72    <-- DIS
     244      10.00604357      10.00544011       6.031E-05      7.76    <-- DIS
     245      10.00518049      10.00458907       5.911E-05      7.79    <-- DIS
     246      10.00432822      10.00374865       5.793E-05      7.82    <-- DIS
     247      10.00348661      10.00291869       5.678E-05      7.85    <-- DIS
     248      10.00265551      10.00209904       5.564E-05      7.88    <-- DIS
     249      10.00183477      10.00128956       5.451E-05      7.91    <-- DIS
     250      10.00102425      10.00049010       5.341E-05      7.95    <-- DIS
     251      10.00022379       9.99970053       5.233E-05      7.98    <-- DIS
     252       9.99943326       9.99892069       5.126E-05      8.01    <-- DIS
     253       9.99865252       9.99815047       5.021E-05      8.04    <-- DIS
     254       9.99788143       9.99738972       4.918E-05      8.09    <-- DIS
     255       9.99711986       9.99663831       4.817E-05      8.12    <-- DIS
     256       9.99636766       9.99589611       4.717E-05      8.15    <-- DIS
     257       9.99562472       9.99516299       4.620E-05      8.19    <-- DIS
     258       9.99489090       9.99443883       4.523E-05      8.22    <-- DIS
     259       9.99416607       9.99372350       4.428E-05      8.25    <-- DIS
     260       9.99345011       9.99301689       4.335E-05      8.28    <-- DIS
     261       9.99274291       9.99231886       4.244E-05      8.31    <-- DIS
     262       9.99204432       9.99162931       4.154E-05      8.35    <-- DIS
     263       9.99135425       9.99094811       4.065E-05      8.38    <-- DIS
     264       9.99067257       9.99027516       3.978E-05      8.41    <-- DIS
     265       9.98999916       9.98961033       3.892E-05      8.44    <-- DIS
     266       9.98933392       9.98895352       3.808E-05      8.47    <-- DIS
     267       9.98867672       9.98830463       3.725E-05      8.50    <-- DIS
     268       9.98802747       9.98766353       3.644E-05      8.54    <-- DIS
     269       9.98738605       9.98703013       3.564E-05      8.57    <-- DIS
     270       9.98675235       9.98640432       3.485E-05      8.60    <-- DIS
     271       9.98612628       9.98578600       3.408E-05      8.63    <-- DIS
     272       9.98550772       9.98517506       3.331E-05      8.66    <-- DIS
     273       9.98489658       9.98457142       3.257E-05      8.70    <-- DIS
     274       9.98429275       9.98397496       3.183E-05      8.73    <-- DIS
     275       9.98369614       9.98338560       3.111E-05      8.76    <-- DIS
     276       9.98310665       9.98280324       3.039E-05      8.79    <-- DIS
     277       9.98252419       9.98222779       2.969E-05      8.82    <-- DIS
     278       9.98194866       9.98165914       2.900E-05      8.86    <-- DIS
     279       9.98137996       9.98109722       2.833E-05      8.89    <-- DIS
     280       9.98081802       9.98054194       2.766E-05      8.92    <-- DIS
     281       9.98026273       9.97999319       2.701E-05      8.95    <-- DIS
     282       9.97971400       9.97945091       2.636E-05      8.98    <-- DIS
     283       9.97917176       9.97891500       2.573E-05      9.02    <-- DIS
     284       9.97863592       9.97838539       2.511E-05      9.05    <-- DIS
     285       9.97810638       9.97786197       2.450E-05      9.10    <-- DIS
     286       9.97758308       9.97734469       2.389E-05      9.13    <-- DIS
     287       9.97706592       9.97683345       2.330E-05      9.17    <-- DIS
     288       9.97655482       9.97632817       2.272E-05      9.20    <-- DIS
     289       9.97604971       9.97582878       2.215E-05      9.23    <-- DIS
     290       9.97555051       9.97533521       2.158E-05      9.26    <-- DIS
     291       9.97505714       9.97484737       2.103E-05      9.29    <-- DIS
     292       9.97456952       9.97436519       2.049E-05      9.32    <-- DIS
     293       9.97408758       9.97388860       1.995E-05      9.36    <-- DIS
     294       9.97361125       9.97341752       1.942E-05      9.39    <-- DIS
     295       9.97314045       9.97295189       1.891E-05      9.42    <-- DIS
     296       9.97267511       9.97249164       1.840E-05      9.45    <-- DIS
     297       9.97221516       9.97203669       1.790E-05      9.48    <-- DIS
     298       9.97176053       9.97158697       1.740E-05      9.52    <-- DIS
     299       9.97131115       9.97114243       1.692E-05      9.55    <-- DIS
     300       9.97086696       9.97070299       1.645E-05      9.58    <-- DIS
     301       9.97042789       9.97026859       1.598E-05      9.61    <-- DIS
     302       9.96999387       9.96983916       1.552E-05      9.64    <-- DIS
     303       9.96956483       9.96941465       1.506E-05      9.67    <-- DIS
     304       9.96914073       9.96899498       1.462E-05      9.71    <-- DIS
     305       9.96872148       9.96858010       1.418E-05      9.74    <-- DIS
     306       9.96830704       9.96816995       1.375E-05      9.77    <-- DIS
     307       9.96789733       9.96776446       1.333E-05      9.80    <-- DIS
     308       9.96749231       9.96736358       1.291E-05      9.83    <-- DIS
     309       9.96709190       9.96696726       1.251E-05      9.87    <-- DIS
     310       9.96669605       9.96657542       1.210E-05      9.90    <-- DIS
     311       9.96630471       9.96618802       1.171E-05      9.93    <-- DIS
     312       9.96591782       9.96580501       1.132E-05      9.96    <-- DIS
     313       9.96553532       9.96542632       1.094E-05      9.99    <-- DIS
     314       9.96515716       9.96505190       1.056E-05     10.02    <-- DIS
     315       9.96478327       9.96468170       1.019E-05     10.06    <-- DIS
     316       9.96441362       9.96431567       9.831E-06     10.09    <-- DIS
     317       9.96404814       9.96395375       9.474E-06     10.12    <-- DIS
     318       9.96368679       9.96359589       9.123E-06     10.15    <-- DIS
     319       9.96332951       9.96324205       8.778E-06     10.18    <-- DIS
     320       9.96297625       9.96289218       8.439E-06     10.22    <-- DIS
     321       9.96262697       9.96254621       8.106E-06     10.25    <-- DIS
     322       9.96228161       9.96220412       7.778E-06     10.28    <-- DIS
     323       9.96194012       9.96186585       7.456E-06     10.31    <-- DIS
     324       9.96160246       9.96153134       7.139E-06     10.34    <-- DIS
     325       9.96126858       9.96120057       6.828E-06     10.38    <-- DIS
     326       9.96093844       9.96087347       6.522E-06     10.41    <-- DIS
     327       9.96061198       9.96055001       6.222E-06     10.44    <-- DIS
     328       9.96028917       9.96023014       5.926E-06     10.47    <-- DIS
     329       9.95996995       9.95991382       5.636E-06     10.50    <-- DIS
     330       9.95965429       9.95960101       5.350E-06     10.54    <-- DIS
     331       9.95934214       9.95929165       5.069E-06     10.57    <-- DIS
     332       9.95903346       9.95898572       4.793E-06     10.60    <-- DIS
     333       9.95872820       9.95868317       4.522E-06     10.63    <-- DIS
     334       9.95842633       9.95838395       4.256E-06     10.66    <-- DIS
     335       9.95812780       9.95808803       3.994E-06     10.69    <-- DIS
     336       9.95783258       9.95779537       3.737E-06     10.73    <-- DIS
     337       9.95754062       9.95750593       3.484E-06     10.76    <-- DIS
     338       9.95725188       9.95721967       3.235E-06     10.79    <-- DIS
     339       9.95696633       9.95693655       2.991E-06     10.82    <-- DIS
     340       9.95668393       9.95665654       2.751E-06     10.85    <-- DIS
     341       9.95640463       9.95637959       2.515E-06     10.89    <-- DIS
     342       9.95612841       9.95610568       2.284E-06     10.92    <-- DIS
     343       9.95585522       9.95583476       2.056E-06     10.95    <-- DIS
     344       9.95558504       9.95556680       1.832E-06     10.98    <-- DIS
     345       9.95531781       9.95530176       1.613E-06     11.01    <-- DIS
     346       9.95505352       9.95503961       1.397E-06     11.05    <-- DIS
     347       9.95479211       9.95478032       1.184E-06     11.08    <-- DIS
     348       9.95453357       9.95452385       9.761E-07     11.11    <-- DIS
     349       9.95427785       9.95427017       7.714E-07     11.14    <-- DIS
     350       9.95402492       9.95401925       5.703E-07     11.17    <-- DIS
     351       9.95377475       9.95377104       3.728E-07     11.20    <-- DIS
     352       9.95352731       9.95352553       1.788E-07     11.24    <-- DIS
     353       9.95328256       9.95328268      -1.180E-08     11.27    <-- DIS
     354       9.95304048       9.95304246      -1.990E-07     11.30    <-- DIS
     355       9.95280102       9.95280483      -3.828E-07     11.33    <-- DIS
     356       9.95256417       9.95256977      -5.633E-07     11.36    <-- DIS
     357       9.95232988       9.95233725      -7.406E-07     11.40    <-- DIS
     358       9.95209814       9.95210724      -9.147E-07     11.43    <-- DIS
     359       9.95186890       9.95187971      -1.086E-06     11.46    <-- DIS
     360       9.95164215       9.95165462      -1.254E-06     11.49    <-- DIS
     361       9.95141784       9.95143196      -1.418E-06     11.52    <-- DIS
     362       9.95119596       9.95121169      -1.580E-06     11.56    <-- DIS
     363       9.95097648       9.95099378      -1.739E-06     11.59    <-- DIS
     364       9.95075936       9.95077822      -1.895E-06     11.62    <-- DIS
     365       9.95054458       9.95056496      -2.048E-06     11.65    <-- DIS
     366       9.95033212       9.95035400      -2.198E-06     11.68    <-- DIS
     367       9.95012194       9.95014528      -2.346E-06     11.71    <-- DIS
     368       9.94991402       9.94993881      -2.491E-06     11.75    <-- DIS
     369       9.94970834       9.94973453      -2.633E-06     11.78    <-- DIS
     370       9.94950486       9.94953244      -2.772E-06     11.81    <-- DIS
     371       9.94930357       9.94933251      -2.909E-06     11.85    <-- DIS
     372       9.94910443       9.94913471      -3.043E-06     11.88    <-- DIS
     373       9.94890743       9.94893902      -3.175E-06     11.91    <-- DIS
     374       9.94871253       9.94874541      -3.304E-06     11.94    <-- DIS
     375       9.94851972       9.94855386      -3.431E-06     11.97    <-- DIS
     376       9.94832897       9.94836434      -3.556E-06     12.00    <-- DIS
     377       9.94814026       9.94817684      -3.678E-06     12.04    <-- DIS
     378       9.94795356       9.94799133      -3.797E-06     12.07    <-- DIS
     379       9.94776885       9.94780779      -3.915E-06     12.10    <-- DIS
     380       9.94758611       9.94762620      -4.030E-06     12.13    <-- DIS
     381       9.94740531       9.94744652      -4.143E-06     12.16    <-- DIS
     382       9.94722644       9.94726875      -4.253E-06     12.20    <-- DIS
     383       9.94704947       9.94709286      -4.362E-06     12.23    <-- DIS
     384       9.94687438       9.94691883      -4.468E-06     12.26    <-- DIS
     385       9.94670115       9.94674664      -4.573E-06     12.29    <-- DIS
     386       9.94652976       9.94657626      -4.675E-06     12.34    <-- DIS
     387       9.94636019       9.94640769      -4.775E-06     12.40    <-- DIS
     388       9.94619241       9.94624089      -4.873E-06     12.45    <-- DIS
     389       9.94602641       9.94607584      -4.970E-06     12.48    <-- DIS
     390       9.94586217       9.94591254      -5.064E-06     12.51    <-- DIS
     391       9.94569967       9.94575095      -5.156E-06     12.54    <-- DIS
     392       9.94553888       9.94559106      -5.247E-06     12.58    <-- DIS
     393       9.94537979       9.94543285      -5.335E-06     12.61    <-- DIS
     394       9.94522238       9.94527631      -5.422E-06     12.64    <-- DIS
     395       9.94506663       9.94512140      -5.507E-06     12.67    <-- DIS
     396       9.94491253       9.94496812      -5.591E-06     12.70    <-- DIS
     397       9.94476004       9.94481645      -5.672E-06     12.73    <-- DIS
     398       9.94460917       9.94466637      -5.752E-06     12.77    <-- DIS
     399       9.94445988       9.94451785      -5.830E-06     12.80    <-- DIS
     400       9.94431216       9.94437090      -5.907E-06     12.83    <-- DIS
     401       9.94416599       9.94422547      -5.981E-06     12.86    <-- DIS
     402       9.94402136       9.94408157      -6.055E-06     12.89    <-- DIS
     403       9.94387825       9.94393917      -6.126E-06     12.93    <-- DIS
     404       9.94373664       9.94379826      -6.196E-06     12.96    <-- DIS
     405       9.94359652       9.94365881      -6.265E-06     12.99    <-- DIS
     406       9.94345786       9.94352082      -6.332E-06     13.02    <-- DIS
     407       9.94332066       9.94338427      -6.397E-06     13.05    <-- DIS
     408       9.94318490       9.94324914      -6.461E-06     13.09    <-- DIS
     409       9.94305055       9.94311542      -6.524E-06     13.12    <-- DIS
     410       9.94291761       9.94298309      -6.585E-06     13.15    <-- DIS
     411       9.94278606       9.94285213      -6.645E-06     13.18    <-- DIS
     412       9.94265589       9.94272253      -6.703E-06     13.21    <-- DIS
     413       9.94252707       9.94259429      -6.760E-06     13.24    <-- DIS
     414       9.94239960       9.94246737      -6.816E-06     13.28    <-- DIS
     415       9.94227346       9.94234176      -6.870E-06     13.31    <-- DIS
     416       9.94214863       9.94221747      -6.923E-06     13.34    <-- DIS
     417       9.94202511       9.94209445      -6.975E-06     13.37    <-- DIS
     418       9.94190287       9.94197272      -7.025E-06     13.40    <-- DIS
     419       9.94178191       9.94185224      -7.075E-06     13.44    <-- DIS
     420       9.94166220       9.94173301      -7.123E-06     13.47    <-- DIS
     421       9.94154374       9.94161502      -7.170E-06     13.50    <-- DIS
     422       9.94142651       9.94149824      -7.215E-06     13.53    <-- DIS
     423       9.94131050       9.94138267      -7.260E-06     13.56    <-- DIS
     424       9.94119569       9.94126829      -7.303E-06     13.60    <-- DIS
     425       9.94108208       9.94115510      -7.345E-06     13.63    <-- DIS
     426       9.94096964       9.94104307      -7.386E-06     13.66    <-- DIS
     427       9.94085837       9.94093220      -7.426E-06     13.69    <-- DIS
     428       9.94074826       9.94082247      -7.465E-06     13.72    <-- DIS
     429       9.94063928       9.94071387      -7.503E-06     13.75    <-- DIS
     430       9.94053144       9.94060639      -7.540E-06     13.79    <-- DIS
     431       9.94042471       9.94050001      -7.576E-06     13.82    <-- DIS
     432       9.94031908       9.94039474      -7.611E-06     13.85    <-- DIS
     433       9.94021455       9.94029054      -7.644E-06     13.88    <-- DIS
     434       9.94011110       9.94018741      -7.677E-06     13.91    <-- DIS
     435       9.94000872       9.94008535      -7.709E-06     13.95    <-- DIS
     436       9.93990740       9.93998433      -7.740E-06     13.98    <-- DIS
     437       9.93980712       9.93988435      -7.770E-06     14.01    <-- DIS
     438       9.93970788       9.93978540      -7.799E-06     14.04    <-- DIS
     439       9.93960966       9.93968746      -7.827E-06     14.07    <-- DIS
     440       9.93951246       9.93959052      -7.854E-06     14.11    <-- DIS
     441       9.93941625       9.93949458      -7.881E-06     14.14    <-- DIS
     442       9.93932104       9.93939963      -7.906E-06     14.17    <-- DIS
     443       9.93922682       9.93930564      -7.931E-06     14.20    <-- DIS
     444       9.93913356       9.93921262      -7.954E-06     14.23    <-- DIS
     445       9.93904126       9.93912055      -7.977E-06     14.27    <-- DIS
     446       9.93894991       9.93902942      -7.999E-06     14.30    <-- DIS
     447       9.93885950       9.93893922      -8.021E-06     14.34    <-- DIS
     448       9.93877002       9.93884995      -8.041E-06     14.37    <-- DIS
     449       9.93868147       9.93876158      -8.061E-06     14.40    <-- DIS
     450       9.93859382       9.93867412      -8.080E-06     14.43    <-- DIS
     451       9.93850707       9.93858755      -8.098E-06     14.47    <-- DIS
     452       9.93842121       9.93850187      -8.116E-06     14.50    <-- DIS
     453       9.93833624       9.93841706      -8.133E-06     14.53    <-- DIS
     454       9.93825213       9.93833312      -8.149E-06     14.56    <-- DIS
     455       9.93816889       9.93825003      -8.164E-06     14.59    <-- DIS
     456       9.93808650       9.93816779      -8.179E-06     14.62    <-- DIS
     457       9.93800496       9.93808638      -8.193E-06     14.66    <-- DIS
     458       9.93792426       9.93800581      -8.206E-06     14.69    <-- DIS
     459       9.93784438       9.93792605      -8.219E-06     14.72    <-- DIS
     460       9.93776532       9.93784711      -8.231E-06     14.75    <-- DIS
     461       9.93768706       9.93776897      -8.242E-06     14.78    <-- DIS
     462       9.93760961       9.93769163      -8.253E-06     14.82    <-- DIS
     463       9.93753295       9.93761507      -8.263E-06     14.85    <-- DIS
     464       9.93745708       9.93753929      -8.272E-06     14.88    <-- DIS
     465       9.93738198       9.93746428      -8.281E-06     14.91    <-- DIS
     466       9.93730765       9.93739003      -8.289E-06     14.94    <-- DIS
     467       9.93723408       9.93731653      -8.297E-06     14.98    <-- DIS
     468       9.93716126       9.93724379      -8.304E-06     15.01    <-- DIS
     469       9.93708919       9.93717178      -8.311E-06     15.04    <-- DIS
     470       9.93701785       9.93710050      -8.317E-06     15.07    <-- DIS
     471       9.93694724       9.93702994      -8.322E-06     15.10    <-- DIS
     472       9.93687735       9.93696010      -8.327E-06     15.13    <-- DIS
     473       9.93680817       9.93689096      -8.332E-06     15.17    <-- DIS
     474       9.93673970       9.93682253      -8.336E-06     15.20    <-- DIS
     475       9.93667193       9.93675479      -8.339E-06     15.23    <-- DIS
     476       9.93660485       9.93668774      -8.342E-06     15.26    <-- DIS
     477       9.93653845       9.93662136      -8.344E-06     15.29    <-- DIS
     478       9.93647273       9.93655566      -8.346E-06     15.33    <-- DIS
     479       9.93640768       9.93649062      -8.347E-06     15.36    <-- DIS
     480       9.93634329       9.93642624      -8.348E-06     15.39    <-- DIS
     481       9.93627955       9.93636251      -8.349E-06     15.42    <-- DIS
     482       9.93621647       9.93629943      -8.349E-06     15.45    <-- DIS
     483       9.93615403       9.93623698      -8.349E-06     15.49    <-- DIS
     484       9.93609222       9.93617516      -8.348E-06     15.52    <-- DIS
     485       9.93603104       9.93611397      -8.346E-06     15.55    <-- DIS
     486       9.93597048       9.93605340      -8.345E-06     15.58    <-- DIS
     487       9.93591054       9.93599343      -8.342E-06     15.61    <-- DIS
     488       9.93585121       9.93593408      -8.340E-06     15.65    <-- DIS
     489       9.93579248       9.93587532      -8.337E-06     15.68    <-- DIS
     490       9.93573435       9.93581715      -8.334E-06     15.71    <-- DIS
     491       9.93567681       9.93575957      -8.330E-06     15.74    <-- DIS
     492       9.93561985       9.93570258      -8.326E-06     15.77    <-- DIS
     493       9.93556348       9.93564615      -8.321E-06     15.80    <-- DIS
     494       9.93550767       9.93559030      -8.316E-06     15.84    <-- DIS
     495       9.93545243       9.93553501      -8.311E-06     15.87    <-- DIS
     496       9.93539775       9.93548027      -8.306E-06     15.90    <-- DIS
     497       9.93534363       9.93542609      -8.300E-06     15.93    <-- DIS
     498       9.93529005       9.93537245      -8.293E-06     15.96    <-- DIS
     499       9.93523702       9.93531935      -8.287E-06     16.00    <-- DIS
     500       9.93518452       9.93526679      -8.280E-06     16.03    <-- DIS
     501       9.93513256       9.93521475      -8.272E-06     16.06    <-- DIS
     502       9.93508113       9.93516324      -8.265E-06     16.09    <-- DIS
     503       9.93503021       9.93511225      -8.257E-06     16.12    <-- DIS
     504       9.93497981       9.93506177      -8.249E-06     16.16    <-- DIS
     505       9.93492993       9.93501179      -8.240E-06     16.19    <-- DIS
     506       9.93488054       9.93496232      -8.231E-06     16.22    <-- DIS
     507       9.93483166       9.93491335      -8.222E-06     16.25    <-- DIS
     508       9.93478327       9.93486487      -8.213E-06     16.28    <-- DIS
     509       9.93473538       9.93481687      -8.203E-06     16.32    <-- DIS
     510       9.93468796       9.93476936      -8.193E-06     16.35    <-- DIS
     511       9.93464103       9.93472232      -8.183E-06     16.38    <-- DIS
     512       9.93459457       9.93467576      -8.172E-06     16.41    <-- DIS
     513       9.93454858       9.93462966      -8.161E-06     16.44    <-- DIS
     514       9.93450306       9.93458403      -8.150E-06     16.47    <-- DIS
     515       9.93445800       9.93453885      -8.139E-06     16.51    <-- DIS
     516       9.93441339       9.93449413      -8.128E-06     16.54    <-- DIS
     517       9.93436923       9.93444986      -8.116E-06     16.57    <-- DIS
     518       9.93432552       9.93440603      -8.104E-06     16.60    <-- DIS
     519       9.93428225       9.93436264      -8.091E-06     16.63    <-- DIS
     520       9.93423942       9.93431968      -8.079E-06     16.67    <-- DIS
     521       9.93419702       9.93427715      -8.066E-06     16.70    <-- DIS
     522       9.93415505       9.93423506      -8.053E-06     16.73    <-- DIS
     523       9.93411351       9.93419338      -8.040E-06     16.76    <-- DIS
     524       9.93407238       9.93415212      -8.027E-06     16.79    <-- DIS
     525       9.93403167       9.93411127      -8.013E-06     16.83    <-- DIS
     526       9.93399137       9.93407083      -7.999E-06     16.86    <-- DIS
     527       9.93395147       9.93403080      -7.985E-06     16.89    <-- DIS
     528       9.93391198       9.93399117      -7.971E-06     16.92    <-- DIS
     529       9.93387289       9.93395193      -7.957E-06     16.95    <-- DIS
     530       9.93383419       9.93391309      -7.942E-06     16.99    <-- DIS
     531       9.93379589       9.93387463      -7.927E-06     17.02    <-- DIS
     532       9.93375796       9.93383656      -7.912E-06     17.05    <-- DIS
     533       9.93372043       9.93379887      -7.897E-06     17.08    <-- DIS
     534       9.93368327       9.93376156      -7.882E-06     17.11    <-- DIS
     535       9.93364648       9.93372462      -7.866E-06     17.14    <-- DIS
     536       9.93361007       9.93368805      -7.851E-06     17.18    <-- DIS
     537       9.93357402       9.93365185      -7.835E-06     17.21    <-- DIS
     538       9.93353833       9.93361600      -7.819E-06     17.24    <-- DIS
     539       9.93350301       9.93358052      -7.803E-06     17.27    <-- DIS
     540       9.93346804       9.93354539      -7.786E-06     17.30    <-- DIS
     541       9.93343343       9.93351061      -7.770E-06     17.34    <-- DIS
     542       9.93339916       9.93347618      -7.753E-06     17.37    <-- DIS
     543       9.93336524       9.93344209      -7.737E-06     17.40    <-- DIS
     544       9.93333166       9.93340834      -7.720E-06     17.43    <-- DIS
     545       9.93329842       9.93337493      -7.703E-06     17.46    <-- DIS
     546       9.93326551       9.93334185      -7.686E-06     17.50    <-- DIS
     547       9.93323293       9.93330911      -7.668E-06     17.53    <-- DIS
     548       9.93320069       9.93327669      -7.651E-06     17.56    <-- DIS
     549       9.93316876       9.93324459      -7.633E-06     17.59    <-- DIS
     550       9.93313716       9.93321281      -7.616E-06     17.62    <-- DIS
     551       9.93310588       9.93318135      -7.598E-06     17.66    <-- DIS
     552       9.93307491       9.93315021      -7.580E-06     17.69    <-- DIS
     553       9.93304425       9.93311937      -7.562E-06     17.72    <-- DIS
     554       9.93301391       9.93308884      -7.544E-06     17.75    <-- DIS
     555       9.93298386       9.93305862      -7.526E-06     17.78    <-- DIS
     556       9.93295412       9.93302869      -7.507E-06     17.82    <-- DIS
     557       9.93292468       9.93299907      -7.489E-06     17.85    <-- DIS
     558       9.93289554       9.93296974      -7.471E-06     17.88    <-- DIS
     559       9.93286668       9.93294070      -7.452E-06     17.91    <-- DIS
     560       9.93283812       9.93291196      -7.433E-06     17.94    <-- DIS
     561       9.93280985       9.93288350      -7.414E-06     17.98    <-- DIS
     562       9.93278186       9.93285532      -7.395E-06     18.01    <-- DIS
     563       9.93275415       9.93282742      -7.376E-06     18.04    <-- DIS
     564       9.93272672       9.93279980      -7.357E-06     18.07    <-- DIS
     565       9.93269957       9.93277246      -7.338E-06     18.10    <-- DIS
     566       9.93267269       9.93274538      -7.319E-06     18.14    <-- DIS
     567       9.93264608       9.93271858      -7.300E-06     18.17    <-- DIS
     568       9.93261973       9.93269205      -7.280E-06     18.20    <-- DIS
     569       9.93259366       9.93266577      -7.261E-06     18.23    <-- DIS
     570       9.93256784       9.93263976      -7.241E-06     18.26    <-- DIS
     571       9.93254228       9.93261401      -7.222E-06     18.30    <-- DIS
     572       9.93251698       9.93258852      -7.202E-06     18.33    <-- DIS
     573       9.93249194       9.93256328      -7.182E-06     18.36    <-- DIS
     574       9.93246715       9.93253829      -7.162E-06     18.39    <-- DIS
     575       9.93244260       9.93251354      -7.142E-06     18.42    <-- DIS
     576       9.93241830       9.93248905      -7.122E-06     18.45    <-- DIS
     577       9.93239425       9.93246480      -7.102E-06     18.49    <-- DIS
     578       9.93237044       9.93244078      -7.082E-06     18.52    <-- DIS
     579       9.93234687       9.93241701      -7.062E-06     18.55    <-- DIS
     580       9.93232353       9.93239348      -7.042E-06     18.58    <-- DIS
     581       9.93230043       9.93237017      -7.022E-06     18.61    <-- DIS
     582       9.93227756       9.93234710      -7.002E-06     18.65    <-- DIS
     583       9.93225492       9.93232426      -6.981E-06     18.68    <-- DIS
     584       9.93223251       9.93230165      -6.961E-06     18.71    <-- DIS
     585       9.93221032       9.93227926      -6.941E-06     18.74    <-- DIS
     586       9.93218836       9.93225709      -6.920E-06     18.77    <-- DIS
     587       9.93216661       9.93223514      -6.900E-06     18.81    <-- DIS
     588       9.93214509       9.93221341      -6.879E-06     18.84    <-- DIS
     589       9.93212378       9.93219190      -6.859E-06     18.87    <-- DIS
     590       9.93210269       9.93217060      -6.838E-06     18.90    <-- DIS
     591       9.93208180       9.93214951      -6.817E-06     18.93    <-- DIS
     592       9.93206113       9.93212864      -6.797E-06     18.97    <-- DIS
     593       9.93204066       9.93210797      -6.776E-06     19.00    <-- DIS
     594       9.93202040       9.93208750      -6.755E-06     19.03    <-- DIS
     595       9.93200035       9.93206724      -6.735E-06     19.06    <-- DIS
     596       9.93198049       9.93204718      -6.714E-06     19.09    <-- DIS
     597       9.93196084       9.93202731      -6.693E-06     19.12    <-- DIS
     598       9.93194138       9.93200765      -6.672E-06     19.16    <-- DIS
     599       9.93192212       9.93198818      -6.651E-06     19.19    <-- DIS
     600       9.93190305       9.93196890      -6.631E-06     19.22    <-- DIS
     601       9.93188417       9.93194981      -6.610E-06     19.25    <-- DIS
     602       9.93186548       9.93193092      -6.589E-06     19.28    <-- DIS
     603       9.93184698       9.93191221      -6.568E-06     19.32    <-- DIS
     604       9.93182866       9.93189369      -6.547E-06     19.35    <-- DIS
     605       9.93181053       9.93187535      -6.526E-06     19.38    <-- DIS
     606       9.93179258       9.93185719      -6.505E-06     19.41    <-- DIS
     607       9.93177481       9.93183921      -6.484E-06     19.44    <-- DIS
     608       9.93175722       9.93182141      -6.463E-06     19.48    <-- DIS
     609       9.93173981       9.93180379      -6.442E-06     19.51    <-- DIS
     610       9.93172257       9.93178634      -6.421E-06     19.54    <-- DIS
     611       9.93170550       9.93176907      -6.400E-06     19.57    <-- DIS
     612       9.93168861       9.93175196      -6.379E-06     19.60    <-- DIS
     613       9.93167188       9.93173503      -6.358E-06     19.63    <-- DIS
     614       9.93165532       9.93171826      -6.337E-06     19.67    <-- DIS
     615       9.93163893       9.93170166      -6.316E-06     19.70    <-- DIS
     616       9.93162271       9.93168523      -6.295E-06     19.73    <-- DIS
     617       9.93160664       9.93166896      -6.274E-06     19.76    <-- DIS
     618       9.93159074       9.93165285      -6.253E-06     19.79    <-- DIS
     619       9.93157500       9.93163689      -6.232E-06     19.83    <-- DIS
     620       9.93155941       9.93162110      -6.211E-06     19.86    <-- DIS
     621       9.93154398       9.93160546      -6.190E-06     19.89    <-- DIS
     622       9.93152871       9.93158998      -6.169E-06     19.92    <-- DIS
     623       9.93151359       9.93157465      -6.149E-06     19.95    <-- DIS
     624       9.93149862       9.93155948      -6.128E-06     19.99    <-- DIS
     625       9.93148380       9.93154445      -6.107E-06     20.02    <-- DIS
     626       9.93146913       9.93152957      -6.086E-06     20.05    <-- DIS
     627       9.93145461       9.93151484      -6.065E-06     20.08    <-- DIS
     628       9.93144023       9.93150026      -6.044E-06     20.11    <-- DIS
     629       9.93142600       9.93148582      -6.023E-06     20.14    <-- DIS
     630       9.93141191       9.93147152      -6.002E-06     20.18    <-- DIS
     631       9.93139797       9.93145737      -5.981E-06     20.21    <-- DIS
     632       9.93138416       9.93144335      -5.960E-06     20.24    <-- DIS
     633       9.93137049       9.93142948      -5.939E-06     20.27    <-- DIS
     634       9.93135696       9.93141574      -5.919E-06     20.30    <-- DIS
     635       9.93134356       9.93140213      -5.898E-06     20.34    <-- DIS
     636       9.93133030       9.93138867      -5.877E-06     20.37    <-- DIS
     637       9.93131717       9.93137533      -5.856E-06     20.40    <-- DIS
     638       9.93130417       9.93136213      -5.836E-06     20.43    <-- DIS
     639       9.93129131       9.93134906      -5.815E-06     20.46    <-- DIS
     640       9.93127857       9.93133611      -5.794E-06     20.50    <-- DIS
     641       9.93126596       9.93132330      -5.773E-06     20.53    <-- DIS
     642       9.93125348       9.93131061      -5.753E-06     20.56    <-- DIS
     643       9.93124112       9.93129805      -5.732E-06     20.59    <-- DIS
     644       9.93122889       9.93128561      -5.711E-06     20.62    <-- DIS
     645       9.93121678       9.93127330      -5.691E-06     20.65    <-- DIS
     646       9.93120479       9.93126110      -5.670E-06     20.69    <-- DIS
     647       9.93119292       9.93124903      -5.650E-06     20.72    <-- DIS
     648       9.93118117       9.93123708      -5.629E-06     20.75    <-- DIS
     649       9.93116954       9.93122524      -5.609E-06     20.78    <-- DIS
     650       9.93115803       9.93121353      -5.588E-06     20.81    <-- DIS
     651       9.93114663       9.93120193      -5.568E-06     20.85    <-- DIS
     652       9.93113535       9.93119044      -5.548E-06     20.88    <-- DIS
     653       9.93112417       9.93117907      -5.527E-06     20.91    <-- DIS
     654       9.93111312       9.93116781      -5.507E-06     20.94    <-- DIS
     655       9.93110217       9.93115666      -5.487E-06     20.97    <-- DIS
     656       9.93109133       9.93114562      -5.466E-06     21.01    <-- DIS
     657       9.93108060       9.93113469      -5.446E-06     21.04    <-- DIS
     658       9.93106998       9.93112387      -5.426E-06     21.07    <-- DIS
     659       9.93105947       9.93111315      -5.406E-06     21.10    <-- DIS
     660       9.93104906       9.93110254      -5.385E-06     21.13    <-- DIS
     661       9.93103875       9.93109204      -5.365E-06     21.16    <-- DIS
     662       9.93102855       9.93108164      -5.345E-06     21.20    <-- DIS
     663       9.93101846       9.93107134      -5.325E-06     21.23    <-- DIS
     664       9.93100846       9.93106115      -5.305E-06     21.26    <-- DIS
     665       9.93099856       9.93105105      -5.285E-06     21.29    <-- DIS
     666       9.93098877       9.93104106      -5.265E-06     21.32    <-- DIS
     667       9.93097907       9.93103116      -5.245E-06     21.36    <-- DIS
     668       9.93096947       9.93102136      -5.226E-06     21.39    <-- DIS
     669       9.93095996       9.93101166      -5.206E-06     21.42    <-- DIS
     670       9.93095056       9.93100206      -5.186E-06     21.45    <-- DIS
     671       9.93094124       9.93099255      -5.166E-06     21.48    <-- DIS
     672       9.93093202       9.93098313      -5.147E-06     21.52    <-- DIS
     673       9.93092289       9.93097381      -5.127E-06     21.55    <-- DIS
     674       9.93091386       9.93096458      -5.107E-06     21.58    <-- DIS
     675       9.93090491       9.93095544      -5.088E-06     21.61    <-- DIS
     676       9.93089606       9.93094639      -5.068E-06     21.64    <-- DIS
     677       9.93088729       9.93093743      -5.049E-06     21.67    <-- DIS
     678       9.93087861       9.93092856      -5.029E-06     21.71    <-- DIS
     679       9.93087002       9.93091977      -5.010E-06     21.74    <-- DIS
     680       9.93086152       9.93091108      -4.990E-06     21.77    <-- DIS
     681       9.93085310       9.93090246      -4.971E-06     21.80    <-- DIS
     682       9.93084476       9.93089394      -4.952E-06     21.83    <-- DIS
     683       9.93083651       9.93088550      -4.933E-06     21.87    <-- DIS
     684       9.93082835       9.93087714      -4.913E-06     21.90    <-- DIS
     685       9.93082026       9.93086886      -4.894E-06     21.93    <-- DIS
     686       9.93081226       9.93086067      -4.875E-06     21.96    <-- DIS
     687       9.93080433       9.93085256      -4.856E-06     21.99    <-- DIS
     688       9.93079649       9.93084452      -4.837E-06     22.03    <-- DIS
     689       9.93078872       9.93083657      -4.818E-06     22.06    <-- DIS
     690       9.93078104       9.93082870      -4.799E-06     22.09    <-- DIS
     691       9.93077343       9.93082090      -4.780E-06     22.12    <-- DIS
     692       9.93076590       9.93081318      -4.761E-06     22.15    <-- DIS
     693       9.93075844       9.93080553      -4.742E-06     22.18    <-- DIS
     694       9.93075106       9.93079797      -4.724E-06     22.22    <-- DIS
     695       9.93074375       9.93079047      -4.705E-06     22.25    <-- DIS
     696       9.93073651       9.93078305      -4.686E-06     22.28    <-- DIS
     697       9.93072935       9.93077571      -4.668E-06     22.31    <-- DIS
     698       9.93072226       9.93076843      -4.649E-06     22.34    <-- DIS
     699       9.93071525       9.93076123      -4.631E-06     22.38    <-- DIS
     700       9.93070830       9.93075410      -4.612E-06     22.41    <-- DIS
     701       9.93070142       9.93074704      -4.594E-06     22.44    <-- DIS
     702       9.93069461       9.93074005      -4.575E-06     22.47    <-- DIS
     703       9.93068787       9.93073313      -4.557E-06     22.50    <-- DIS
     704       9.93068120       9.93072628      -4.539E-06     22.54    <-- DIS
     705       9.93067460       9.93071949      -4.520E-06     22.57    <-- DIS
     706       9.93066806       9.93071277      -4.502E-06     22.60    <-- DIS
     707       9.93066159       9.93070612      -4.484E-06     22.63    <-- DIS
     708       9.93065518       9.93069953      -4.466E-06     22.66    <-- DIS
     709       9.93064884       9.93069301      -4.448E-06     22.70    <-- DIS
     710       9.93064256       9.93068656      -4.430E-06     22.73    <-- DIS
     711       9.93063635       9.93068016      -4.412E-06     22.76    <-- DIS
     712       9.93063019       9.93067383      -4.394E-06     22.79    <-- DIS
     713       9.93062410       9.93066756      -4.376E-06     22.82    <-- DIS
     714       9.93061807       9.93066136      -4.359E-06     22.85    <-- DIS
     715       9.93061211       9.93065521      -4.341E-06     22.89    <-- DIS
     716       9.93060620       9.93064913      -4.323E-06     22.92    <-- DIS
     717       9.93060035       9.93064311      -4.306E-06     22.95    <-- DIS
     718       9.93059456       9.93063714      -4.288E-06     22.98    <-- DIS
     719       9.93058883       9.93063124      -4.270E-06     23.01    <-- DIS
     720       9.93058316       9.93062539      -4.253E-06     23.05    <-- DIS
     721       9.93057754       9.93061960      -4.235E-06     23.08    <-- DIS
     722       9.93057198       9.93061387      -4.218E-06     23.11    <-- DIS
     723       9.93056648       9.93060819      -4.201E-06     23.14    <-- DIS
     724       9.93056103       9.93060257      -4.183E-06     23.17    <-- DIS
     725       9.93055564       9.93059701      -4.166E-06     23.21    <-- DIS
     726       9.93055030       9.93059150      -4.149E-06     23.24    <-- DIS
     727       9.93054501       9.93058605      -4.132E-06     23.27    <-- DIS
     728       9.93053978       9.93058064      -4.115E-06     23.30    <-- DIS
     729       9.93053460       9.93057530      -4.098E-06     23.33    <-- DIS
     730       9.93052948       9.93057000      -4.081E-06     23.36    <-- DIS
     731       9.93052440       9.93056476      -4.064E-06     23.40    <-- DIS
     732       9.93051938       9.93055957      -4.047E-06     23.43    <-- DIS
     733       9.93051441       9.93055443      -4.030E-06     23.46    <-- DIS
     734       9.93050948       9.93054934      -4.013E-06     23.49    <-- DIS
     735       9.93050461       9.93054430      -3.997E-06     23.52    <-- DIS
     736       9.93049979       9.93053931      -3.980E-06     23.56    <-- DIS
     737       9.93049501       9.93053437      -3.963E-06     23.59    <-- DIS
     738       9.93049029       9.93052948      -3.947E-06     23.62    <-- DIS
     739       9.93048561       9.93052464      -3.930E-06     23.65    <-- DIS
     740       9.93048098       9.93051984      -3.914E-06     23.68    <-- DIS
     741       9.93047639       9.93051510      -3.898E-06     23.72    <-- DIS
     742       9.93047185       9.93051040      -3.881E-06     23.75    <-- DIS
     743       9.93046736       9.93050574      -3.865E-06     23.78    <-- DIS
     744       9.93046291       9.93050113      -3.849E-06     23.81    <-- DIS
     745       9.93045851       9.93049657      -3.832E-06     23.84    <-- DIS
     746       9.93045415       9.93049205      -3.816E-06     23.87    <-- DIS
     747       9.93044984       9.93048758      -3.800E-06     23.91    <-- DIS
     748       9.93044557       9.93048315      -3.784E-06     23.94    <-- DIS
     749       9.93044134       9.93047876      -3.768E-06     23.97    <-- DIS
     750       9.93043716       9.93047442      -3.752E-06     24.00    <-- DIS
     751       9.93043302       9.93047012      -3.736E-06     24.03    <-- DIS
     752       9.93042892       9.93046587      -3.721E-06     24.07    <-- DIS
     753       9.93042486       9.93046165      -3.705E-06     24.10    <-- DIS
     754       9.93042084       9.93045748      -3.689E-06     24.13    <-- DIS
     755       9.93041687       9.93045334      -3.673E-06     24.16    <-- DIS
     756       9.93041293       9.93044925      -3.658E-06     24.19    <-- DIS
     757       9.93040903       9.93044520      -3.642E-06     24.23    <-- DIS
     758       9.93040518       9.93044119      -3.627E-06     24.26    <-- DIS
     759       9.93040136       9.93043722      -3.611E-06     24.29    <-- DIS
     760       9.93039758       9.93043329      -3.596E-06     24.32    <-- DIS
     761       9.93039384       9.93042939      -3.580E-06     24.35    <-- DIS
     762       9.93039014       9.93042554      -3.565E-06     24.38    <-- DIS
     763       9.93038647       9.93042172      -3.550E-06     24.42    <-- DIS
     764       9.93038284       9.93041794      -3.535E-06     24.45    <-- DIS
     765       9.93037925       9.93041420      -3.519E-06     24.48    <-- DIS
[...]
  WF centre and spread    6  (  1.155878,  0.773049,  5.834278 )     1.04683215
  WF centre and spread    7  (  1.471795,  0.888460,  5.058121 )     0.90335661
  WF centre and spread    8  (  1.213876,  0.442025,  5.058072 )     0.90332266
  WF centre and spread    9  (  0.991562,  0.877871,  1.885804 )     0.55933664
  WF centre and spread   10  (  1.198681,  0.741378,  1.479664 )     0.69706989
  WF centre and spread   11  (  1.549627,  0.876414,  1.806892 )     0.52560754
  WF centre and spread   12  (  1.253313,  0.383418,  1.818833 )     0.52792833
  WF centre and spread   13  (  1.499528,  2.004128,  4.919242 )     0.56227922
  WF centre and spread   14  (  1.301885,  2.136395,  5.330271 )     0.69546161
  WF centre and spread   15  (  0.943813,  2.005850,  5.007003 )     0.52508041
  WF centre and spread   16  (  1.241457,  2.498319,  4.994441 )     0.52730630
  Sum of centres and spreads ( 19.959845, 23.047466, 54.483618 )    12.40422858
 
   4350    -0.930E-07     0.0001397915       12.4042192910     221.61  <-- CONV
        O_D=      0.0845838 O_OD=      2.3895973 O_TOT=     12.4042193 <-- SPRD
 Delta: O_D=  0.2622475E-07 O_OD= -0.1192571E-06 O_TOT= -0.9303231E-07 <-- DLTA
 ------------------------------------------------------------------------------
 Cycle:   4400
  WF centre and spread    1  (  1.342788,  2.105846,  2.521673 )     1.03829331
  WF centre and spread    2  (  1.339285,  2.107807,  0.976258 )     1.04695908
  WF centre and spread    3  (  1.023197,  1.992490,  1.752108 )     0.90344538
  WF centre and spread    4  (  1.281139,  2.438809,  1.752150 )     0.90342805
  WF centre and spread    5  (  1.152021,  0.775202,  4.288815 )     1.03851496
  WF centre and spread    6  (  1.155878,  0.773043,  5.834278 )     1.04683898
  WF centre and spread    7  (  1.471801,  0.888458,  5.058115 )     0.90335869
  WF centre and spread    8  (  1.213869,  0.442039,  5.058069 )     0.90333234
  WF centre and spread    9  (  0.991103,  0.877564,  1.885471 )     0.55916309
  WF centre and spread   10  (  1.199122,  0.741348,  1.479627 )     0.69717022
  WF centre and spread   11  (  1.549340,  0.876760,  1.807303 )     0.52566933
  WF centre and spread   12  (  1.253614,  0.383412,  1.818785 )     0.52792804
  WF centre and spread   13  (  1.500070,  2.004460,  4.919634 )     0.56206470
  WF centre and spread   14  (  1.301375,  2.136463,  5.330321 )     0.69559270
  WF centre and spread   15  (  0.944132,  2.005446,  5.006536 )     0.52514350
  WF centre and spread   16  (  1.241110,  2.498319,  4.994473 )     0.52731238
  Sum of centres and spreads ( 19.959845, 23.047466, 54.483618 )    12.40421475
 
   4400    -0.348E-06     0.0001841592       12.4042054659     223.04  <-- CONV
        O_D=      0.0845865 O_OD=      2.3895808 O_TOT=     12.4042055 <-- SPRD
 Delta: O_D=  0.1309123E-06 O_OD= -0.4792561E-06 O_TOT= -0.3483439E-06 <-- DLTA
 ------------------------------------------------------------------------------

 Writing checkpoint file hBN.chk... done

 Cycle:   4450
  WF centre and spread    1  (  1.342787,  2.105843,  2.521673 )     1.03828336
  WF centre and spread    2  (  1.339283,  2.107808,  0.976257 )     1.04696422
  WF centre and spread    3  (  1.023203,  1.992493,  1.752113 )     0.90344999
  WF centre and spread    4  (  1.281140,  2.438805,  1.752153 )     0.90343454
  WF centre and spread    5  (  1.152020,  0.775202,  4.288816 )     1.03850187
  WF centre and spread    6  (  1.155879,  0.773038,  5.834279 )     1.04684593
  WF centre and spread    7  (  1.471803,  0.888456,  5.058109 )     0.90336231
  WF centre and spread    8  (  1.213864,  0.442051,  5.058065 )     0.90334175
  WF centre and spread    9  (  0.990613,  0.877248,  1.885102 )     0.55897190
  WF centre and spread   10  (  1.199606,  0.741313,  1.479587 )     0.69727995
  WF centre and spread   11  (  1.549035,  0.877120,  1.807749 )     0.52573798
  WF centre and spread   12  (  1.253920,  0.383407,  1.818742 )     0.52792879
  WF centre and spread   13  (  1.500651,  2.004800,  4.920070 )     0.56182792
  WF centre and spread   14  (  1.300814,  2.136542,  5.330376 )     0.69573629
  WF centre and spread   15  (  0.944471,  2.005027,  5.006029 )     0.52521400
  WF centre and spread   16  (  1.240756,  2.498316,  4.994498 )     0.52732029
  Sum of centres and spreads ( 19.959845, 23.047466, 54.483619 )    12.40420109
 
   4450    -0.781E-06     0.0004357959       12.4041917960     224.58  <-- CONV
        O_D=      0.0845894 O_OD=      2.3895642 O_TOT=     12.4041918 <-- SPRD
 Delta: O_D=  0.2724962E-06 O_OD= -0.1053908E-05 O_TOT= -0.7814119E-06 <-- DLTA
 ------------------------------------------------------------------------------
 Cycle:   4500
  WF centre and spread    1  (  1.342785,  2.105840,  2.521673 )     1.03827588
  WF centre and spread    2  (  1.339281,  2.107808,  0.976256 )     1.04696844
  WF centre and spread    3  (  1.023208,  1.992495,  1.752116 )     0.90345359
  WF centre and spread    4  (  1.281141,  2.438803,  1.752155 )     0.90343908
  WF centre and spread    5  (  1.152020,  0.775202,  4.288816 )     1.03849206
  WF centre and spread    6  (  1.155880,  0.773035,  5.834280 )     1.04685173
  WF centre and spread    7  (  1.471802,  0.888454,  5.058105 )     0.90336548
  WF centre and spread    8  (  1.213862,  0.442057,  5.058062 )     0.90334806
  WF centre and spread    9  (  0.990263,  0.877032,  1.884830 )     0.55883109
  WF centre and spread   10  (  1.199961,  0.741284,  1.479557 )     0.69735936
  WF centre and spread   11  (  1.548819,  0.877369,  1.808072 )     0.52578885
  WF centre and spread   12  (  1.254129,  0.383404,  1.818715 )     0.52792971
  WF centre and spread   13  (  1.501066,  2.005032,  4.920392 )     0.56165324
  WF centre and spread   14  (  1.300402,  2.136602,  5.330417 )     0.69584048
  WF centre and spread   15  (  0.944712,  2.004735,  5.005662 )     0.52526655
  WF centre and spread   16  (  1.240514,  2.498313,  4.994510 )     0.52732646
  Sum of centres and spreads ( 19.959845, 23.047466, 54.483619 )    12.40419006
 
   4500    -0.152E-06     0.0001300226       12.4041807722     225.96  <-- CONV
        O_D=      0.0845912 O_OD=      2.3895514 O_TOT=     12.4041808 <-- SPRD
 Delta: O_D=  0.5826998E-07 O_OD= -0.2101471E-06 O_TOT= -0.1518772E-06 <-- DLTA
 ------------------------------------------------------------------------------

 Writing checkpoint file hBN.chk... done

 Cycle:   4550
  WF centre and spread    1  (  1.342784,  2.105838,  2.521672 )     1.03827029
  WF centre and spread    2  (  1.339279,  2.107807,  0.976256 )     1.04697152
  WF centre and spread    3  (  1.023213,  1.992496,  1.752119 )     0.90345645
  WF centre and spread    4  (  1.281141,  2.438803,  1.752156 )     0.90344242
  WF centre and spread    5  (  1.152020,  0.775203,  4.288817 )     1.03848466
  WF centre and spread    6  (  1.155881,  0.773034,  5.834281 )     1.04685601
  WF centre and spread    7  (  1.471800,  0.888453,  5.058102 )     0.90336824
  WF centre and spread    8  (  1.213860,  0.442061,  5.058060 )     0.90335259
  WF centre and spread    9  (  0.989999,  0.876873,  1.884620 )     0.55872250
  WF centre and spread   10  (  1.200234,  0.741261,  1.479535 )     0.69742022
  WF centre and spread   11  (  1.548656,  0.877554,  1.808319 )     0.52582845
  WF centre and spread   12  (  1.254282,  0.383403,  1.818697 )     0.52793093
  WF centre and spread   13  (  1.501380,  2.005202,  4.920642 )     0.56151835
  WF centre and spread   14  (  1.300085,  2.136649,  5.330447 )     0.69592048
  WF centre and spread   15  (  0.944894,  2.004519,  5.005381 )     0.52530765
  WF centre and spread   16  (  1.240338,  2.498309,  4.994516 )     0.52733184
  Sum of centres and spreads ( 19.959845, 23.047466, 54.483619 )    12.40418261
 
   4550    -0.119E-06     0.0001528116       12.4041733202     227.45  <-- CONV
        O_D=      0.0845927 O_OD=      2.3895425 O_TOT=     12.4041733 <-- SPRD
 Delta: O_D=  0.7705330E-08 O_OD= -0.1269231E-06 O_TOT= -0.1192177E-06 <-- DLTA
 ------------------------------------------------------------------------------
 Cycle:   4600
  WF centre and spread    1  (  1.342783,  2.105837,  2.521672 )     1.03826610
  WF centre and spread    2  (  1.339277,  2.107807,  0.976255 )     1.04697383
  WF centre and spread    3  (  1.023217,  1.992498,  1.752121 )     0.90345867
  WF centre and spread    4  (  1.281141,  2.438802,  1.752157 )     0.90344491
  WF centre and spread    5  (  1.152020,  0.775204,  4.288817 )     1.03847913
  WF centre and spread    6  (  1.155883,  0.773033,  5.834281 )     1.04685919
  WF centre and spread    7  (  1.471798,  0.888451,  5.058099 )     0.90337046
  WF centre and spread    8  (  1.213859,  0.442064,  5.058059 )     0.90335592
  WF centre and spread    9  (  0.989802,  0.876758,  1.884460 )     0.55864037
  WF centre and spread   10  (  1.200440,  0.741243,  1.479518 )     0.69746610
  WF centre and spread   11  (  1.548534,  0.877689,  1.808504 )     0.52585845
  WF centre and spread   12  (  1.254392,  0.383403,  1.818686 )     0.52793205
  WF centre and spread   13  (  1.501615,  2.005326,  4.920831 )     0.56141623
  WF centre and spread   14  (  1.299845,  2.136686,  5.330471 )     0.69598083
  WF centre and spread   15  (  0.945029,  2.004360,  5.005170 )     0.52533886
  WF centre and spread   16  (  1.240210,  2.498306,  4.994518 )     0.52733614
  Sum of centres and spreads ( 19.959845, 23.047466, 54.483619 )    12.40417725
 
   4600    -0.184E-06     0.0003632285       12.4041679579     228.76  <-- CONV
        O_D=      0.0845938 O_OD=      2.3895360 O_TOT=     12.4041680 <-- SPRD
 Delta: O_D= -0.8958573E-07 O_OD= -0.9406198E-07 O_TOT= -0.1836477E-06 <-- DLTA
 ------------------------------------------------------------------------------

 Writing checkpoint file hBN.chk... done

 Cycle:   4650
  WF centre and spread    1  (  1.342781,  2.105833,  2.521672 )     1.03825781
  WF centre and spread    2  (  1.339274,  2.107806,  0.976255 )     1.04697854
  WF centre and spread    3  (  1.023225,  1.992500,  1.752124 )     0.90346330
  WF centre and spread    4  (  1.281141,  2.438801,  1.752160 )     0.90344980
  WF centre and spread    5  (  1.152021,  0.775207,  4.288817 )     1.03846814
  WF centre and spread    6  (  1.155885,  0.773032,  5.834282 )     1.04686565
  WF centre and spread    7  (  1.471792,  0.888449,  5.058094 )     0.90337529
  WF centre and spread    8  (  1.213858,  0.442068,  5.058056 )     0.90336231
  WF centre and spread    9  (  0.989411,  0.876535,  1.884137 )     0.55847437
  WF centre and spread   10  (  1.200856,  0.741204,  1.479484 )     0.69755818
  WF centre and spread   11  (  1.548295,  0.877952,  1.808874 )     0.52591927
  WF centre and spread   12  (  1.254603,  0.383403,  1.818667 )     0.52793477
  WF centre and spread   13  (  1.502080,  2.005562,  4.921215 )     0.56120962
  WF centre and spread   14  (  1.299361,  2.136762,  5.330517 )     0.69610208
  WF centre and spread   15  (  0.945296,  2.004052,  5.004748 )     0.52540233
  WF centre and spread   16  (  1.239966,  2.498298,  4.994517 )     0.52734532
  Sum of centres and spreads ( 19.959845, 23.047466, 54.483619 )    12.40416677
 
   4650    -0.604E-07     0.0000872266       12.4041574775     230.25  <-- CONV
        O_D=      0.0845960 O_OD=      2.3895233 O_TOT=     12.4041575 <-- SPRD
 Delta: O_D=  0.1591506E-07 O_OD= -0.7635305E-07 O_TOT= -0.6043799E-07 <-- DLTA
 ------------------------------------------------------------------------------
 Cycle:   4700
  WF centre and spread    1  (  1.342779,  2.105829,  2.521672 )     1.03824869
  WF centre and spread    2  (  1.339271,  2.107806,  0.976254 )     1.04698378
  WF centre and spread    3  (  1.023234,  1.992503,  1.752128 )     0.90346856
  WF centre and spread    4  (  1.281140,  2.438801,  1.752162 )     0.90345510
  WF centre and spread    5  (  1.152023,  0.775210,  4.288818 )     1.03845605
  WF centre and spread    6  (  1.155889,  0.773031,  5.834283 )     1.04687287
  WF centre and spread    7  (  1.471785,  0.888446,  5.058089 )     0.90338098
  WF centre and spread    8  (  1.213857,  0.442072,  5.058052 )     0.90336906
  WF centre and spread    9  (  0.988988,  0.876306,  1.883777 )     0.55828987
  WF centre and spread   10  (  1.201316,  0.741159,  1.479446 )     0.69765954
  WF centre and spread   11  (  1.548037,  0.878228,  1.809280 )     0.52598725
  WF centre and spread   12  (  1.254820,  0.383404,  1.818652 )     0.52793861
  WF centre and spread   13  (  1.502585,  2.005804,  4.921644 )     0.56097963
  WF centre and spread   14  (  1.298823,  2.136850,  5.330569 )     0.69623581
  WF centre and spread   15  (  0.945584,  2.003729,  5.004285 )     0.52547359
  WF centre and spread   16  (  1.239715,  2.498288,  4.994508 )     0.52735645
  Sum of centres and spreads ( 19.959845, 23.047466, 54.483620 )    12.40415582
 
   4700    -0.465E-07     0.0001231622       12.4041465280     231.63  <-- CONV
        O_D=      0.0845984 O_OD=      2.3895100 O_TOT=     12.4041465 <-- SPRD
 Delta: O_D=  0.4510446E-08 O_OD= -0.5099374E-07 O_TOT= -0.4648330E-07 <-- DLTA
 ------------------------------------------------------------------------------

 Writing checkpoint file hBN.chk... done

 Cycle:   4750
  WF centre and spread    1  (  1.342777,  2.105827,  2.521672 )     1.03824430
  WF centre and spread    2  (  1.339269,  2.107805,  0.976253 )     1.04698628
  WF centre and spread    3  (  1.023239,  1.992504,  1.752130 )     0.90347118
  WF centre and spread    4  (  1.281140,  2.438801,  1.752163 )     0.90345767
  WF centre and spread    5  (  1.152023,  0.775212,  4.288818 )     1.03845023
  WF centre and spread    6  (  1.155890,  0.773031,  5.834284 )     1.04687630
  WF centre and spread    7  (  1.471781,  0.888444,  5.058086 )     0.90338390
  WF centre and spread    8  (  1.213857,  0.442074,  5.058050 )     0.90337228
  WF centre and spread    9  (  0.988787,  0.876201,  1.883600 )     0.55819983
  WF centre and spread   10  (  1.201540,  0.741135,  1.479428 )     0.69770866
  WF centre and spread   11  (  1.547915,  0.878356,  1.809476 )     0.52602052
  WF centre and spread   12  (  1.254918,  0.383406,  1.818648 )     0.52794081
  WF centre and spread   13  (  1.502826,  2.005915,  4.921855 )     0.56086722
  WF centre and spread   14  (  1.298561,  2.136894,  5.330594 )     0.69630071
  WF centre and spread   15  (  0.945721,  2.003578,  5.004062 )     0.52550858
  WF centre and spread   16  (  1.239602,  2.498282,  4.994501 )     0.52736227
  Sum of centres and spreads ( 19.959845, 23.047466, 54.483620 )    12.40415073
 
   4750    -0.108E-06     0.0000763949       12.4041414448     233.11  <-- CONV
        O_D=      0.0845995 O_OD=      2.3895037 O_TOT=     12.4041414 <-- SPRD
 Delta: O_D=  0.3869518E-07 O_OD= -0.1464128E-06 O_TOT= -0.1077176E-06 <-- DLTA
 ------------------------------------------------------------------------------
 Cycle:   4800
  WF centre and spread    1  (  1.342776,  2.105825,  2.521672 )     1.03823950
  WF centre and spread    2  (  1.339267,  2.107804,  0.976253 )     1.04698906
  WF centre and spread    3  (  1.023245,  1.992506,  1.752133 )     0.90347410
  WF centre and spread    4  (  1.281139,  2.438801,  1.752165 )     0.90346048
  WF centre and spread    5  (  1.152024,  0.775214,  4.288818 )     1.03844385
  WF centre and spread    6  (  1.155892,  0.773031,  5.834284 )     1.04688013
  WF centre and spread    7  (  1.471776,  0.888443,  5.058083 )     0.90338717
  WF centre and spread    8  (  1.213856,  0.442075,  5.058048 )     0.90337576
  WF centre and spread    9  (  0.988567,  0.876090,  1.883405 )     0.55810029
  WF centre and spread   10  (  1.201787,  0.741108,  1.479408 )     0.69776264
  WF centre and spread   11  (  1.547782,  0.878494,  1.809691 )     0.52605743
  WF centre and spread   12  (  1.255021,  0.383408,  1.818644 )     0.52794344
  WF centre and spread   13  (  1.503089,  2.006032,  4.922088 )     0.56074286
  WF centre and spread   14  (  1.298272,  2.136944,  5.330621 )     0.69637211
  WF centre and spread   15  (  0.945870,  2.003417,  5.003816 )     0.52554749
  WF centre and spread   16  (  1.239482,  2.498275,  4.994490 )     0.52736892
  Sum of centres and spreads ( 19.959845, 23.047466, 54.483620 )    12.40414522
 
   4800    -0.972E-10     0.0000994450       12.4041359351     234.40  <-- CONV
        O_D=      0.0846008 O_OD=      2.3894970 O_TOT=     12.4041359 <-- SPRD
 Delta: O_D=  0.2570745E-10 O_OD= -0.1228742E-09 O_TOT= -0.9716672E-10 <-- DLTA
 ------------------------------------------------------------------------------

 Writing checkpoint file hBN.chk... done

 Final State
  WF centre and spread    1  (  1.342776,  2.105825,  2.521672 )     1.03823950
  WF centre and spread    2  (  1.339267,  2.107804,  0.976253 )     1.04698906
  WF centre and spread    3  (  1.023245,  1.992506,  1.752133 )     0.90347410
  WF centre and spread    4  (  1.281139,  2.438801,  1.752165 )     0.90346048
  WF centre and spread    5  (  1.152024,  0.775214,  4.288818 )     1.03844385
  WF centre and spread    6  (  1.155892,  0.773031,  5.834284 )     1.04688013
  WF centre and spread    7  (  1.471776,  0.888443,  5.058083 )     0.90338717
  WF centre and spread    8  (  1.213856,  0.442075,  5.058048 )     0.90337576
  WF centre and spread    9  (  0.988567,  0.876090,  1.883405 )     0.55810029
  WF centre and spread   10  (  1.201787,  0.741108,  1.479408 )     0.69776264
  WF centre and spread   11  (  1.547782,  0.878494,  1.809691 )     0.52605743
  WF centre and spread   12  (  1.255021,  0.383408,  1.818644 )     0.52794344
  WF centre and spread   13  (  1.503089,  2.006032,  4.922088 )     0.56074286
  WF centre and spread   14  (  1.298272,  2.136944,  5.330621 )     0.69637211
  WF centre and spread   15  (  0.945870,  2.003417,  5.003816 )     0.52554749
  WF centre and spread   16  (  1.239482,  2.498275,  4.994490 )     0.52736892
  Sum of centres and spreads ( 19.959845, 23.047466, 54.483620 )    12.40414522
 
         Spreads (Ang^2)       Omega I      =     9.930038172
        ================       Omega D      =     0.084600768
                               Omega OD     =     2.389496995
    Final Spread (Ang^2)       Omega Total  =    12.404135935
 ------------------------------------------------------------------------------
 Time for wannierise          133.400 (sec)

 Writing checkpoint file hBN.chk... done

 *---------------------------------------------------------------------------*
 |                               PLOTTING                                    |
 *---------------------------------------------------------------------------*
 
 
 Calculating interpolated band-structure
 
 Time to calculate interpolated band structure      15.120 (sec)
 
 Time for plotting            434.836 (sec)
 Total Execution Time         677.687 (sec)

 *===========================================================================*
 |                             TIMING INFORMATION                            |
 *===========================================================================*
 |    Tag                                                Ncalls      Time (s)|
 |---------------------------------------------------------------------------|
 |kmesh: get                                        :         1         0.930|
 |overlap: allocate                                 :         1         0.004|
 |overlap: read                                     :         1        12.856|
 |dis: main                                         :         1        95.472|
 |wann: main                                        :         1       133.400|
 |plot: main                                        :         1       434.836|
 *---------------------------------------------------------------------------*
 
 All done: wannier90 exiting
