
     Program PWSCF v.6.5 starts on 10Jun2024 at 13: 4:22 

     This program is part of the open-source Quantum ESPRESSO suite
     for quantum simulation of materials; please cite
         "P. Giannozzi et al., J. Phys.:Condens. Matter 21 395502 (2009);
         "P. Giannozzi et al., J. Phys.:Condens. Matter 29 465901 (2017);
          URL http://www.quantum-espresso.org", 
     in publications or presentations arising from this work. More details at
     http://www.quantum-espresso.org/quote

     Parallel version (MPI), running on    32 processors

     MPI processes distributed on     1 nodes
     R & G space division:  proc/nbgrp/npool/nimage =      32
     Waiting for input...
     Reading input from standard input

     Current dimensions of program PWSCF are:
     Max number of different atomic species (ntypx) = 10
     Max number of k-points (npk) =  40000
     Max angular momentum in pseudopotentials (lmaxx) =  3

     Atomic positions and unit cell read from directory:
     ./hBN.save/                                                                                                                                                                                                                                                     
 
               file B.pbe-mt_fhi.UPF: wavefunction(s)  4f renormalized
               file N.pbe-mt_fhi.UPF: wavefunction(s)  4f renormalized

     Subspace diagonalization in iterative solution of the eigenvalue problem:
     a serial algorithm will be used

 
     Parallelization info
     --------------------
     sticks:   dense  smooth     PW     G-vecs:    dense   smooth      PW
     Min          16      13      5                  826      591     159
     Max          17      14      6                  833      604     174
     Sum         535     433    187                26529    19063    5305
 


     bravais-lattice index     =            4
     lattice parameter (alat)  =       4.7149  a.u.
     unit-cell volume          =     240.7425 (a.u.)^3
     number of atoms/cell      =            4
     number of atomic types    =            2
     number of electrons       =        16.00
     number of Kohn-Sham states=           32
     kinetic-energy cutoff     =      70.0000  Ry
     charge density cutoff     =     350.0000  Ry
     Exchange-correlation= PBE
                           (   1   4   3   4   0   0   0)

     celldm(1)=   4.714914  celldm(2)=   0.000000  celldm(3)=   2.652167
     celldm(4)=   0.000000  celldm(5)=   0.000000  celldm(6)=   0.000000

     crystal axes: (cart. coord. in units of alat)
               a(1) = (   1.000000   0.000000   0.000000 )  
               a(2) = (  -0.500000   0.866025   0.000000 )  
               a(3) = (   0.000000   0.000000   2.652167 )  

     reciprocal axes: (cart. coord. in units 2 pi/alat)
               b(1) = (  1.000000  0.577350  0.000000 )  
               b(2) = (  0.000000  1.154701  0.000000 )  
               b(3) = (  0.000000  0.000000  0.377050 )  


     PseudoPot. # 1 for B  read from file:
     ./B.pbe-mt_fhi.UPF
     MD5 check sum: 3f163d4852bc5bbf8d257a5964ae55b6
     Pseudo is Norm-conserving + core correction, Zval =  3.0
     Generated using FHI98PP, converted with fhi2upf.x v.5.0.2
     Using radial grid of  453 points,  3 beta functions with: 
                l(1) =   0
                l(2) =   1
                l(3) =   3

     PseudoPot. # 2 for N  read from file:
     ./N.pbe-mt_fhi.UPF
     MD5 check sum: 811917c5dca8ff3f92e6b0a65b071028
     Pseudo is Norm-conserving, Zval =  5.0
     Generated using FHI98PP, converted with fhi2upf.x v.5.0.2
     Using radial grid of  467 points,  3 beta functions with: 
                l(1) =   0
                l(2) =   1
                l(3) =   3

     atomic species   valence    mass     pseudopotential
        B              3.00    10.81100     B ( 1.00)
        N              5.00    14.00700     N ( 1.00)

     No symmetry found


                                    s                        frac. trans.

      isym =  1     identity                                     

 cryst.   s( 1) = (     1          0          0      )
                  (     0          1          0      )
                  (     0          0          1      )

 cart.    s( 1) = (  1.0000000  0.0000000  0.0000000 )
                  (  0.0000000  1.0000000  0.0000000 )
                  (  0.0000000  0.0000000  1.0000000 )


     point group C_1 (1)    
     there are  1 classes
     the character table:

       E    
A      1.00

     the symmetry operations in each class and the name of the first element:

     E        1
          identity                                               

   Cartesian axes

     site n.     atom                  positions (alat units)
         1           B   tau(   1) = (   0.4999932   0.8660148   0.7009376  )
         2           B   tau(   2) = (   0.4999891   0.2886564   2.0286732  )
         3           N   tau(   3) = (   0.4999935   0.2886640   0.7008959  )
         4           N   tau(   4) = (   0.4999886   0.8660071   2.0287598  )

   Crystallographic axes

     site n.     atom                  positions (cryst. coord.)
         1           B   tau(   1) = (  0.9999871  0.9999878  0.2642886  )
         2           B   tau(   2) = (  0.6666450  0.3333117  0.7649115  )
         3           N   tau(   3) = (  0.6666538  0.3333204  0.2642729  )
         4           N   tau(   4) = (  0.9999780  0.9999789  0.7649441  )

     number of k points=  1536  Gaussian smearing, width (Ry)=  0.0200
                       cart. coord. in units 2pi/alat
        k(    1) = (   0.0000000   0.0000000   0.0000000), wk =   0.0013021
        k(    2) = (   0.0000000   0.0000000   0.0628417), wk =   0.0013021
        k(    3) = (   0.0000000   0.0000000   0.1256834), wk =   0.0013021
        k(    4) = (   0.0000000   0.0000000   0.1885251), wk =   0.0013021
        k(    5) = (   0.0000000   0.0000000   0.2513667), wk =   0.0013021
        k(    6) = (   0.0000000   0.0000000   0.3142084), wk =   0.0013021
        k(    7) = (   0.0000000   0.0721688   0.0000000), wk =   0.0013021
        k(    8) = (   0.0000000   0.0721688   0.0628417), wk =   0.0013021
        k(    9) = (   0.0000000   0.0721688   0.1256834), wk =   0.0013021
        k(   10) = (   0.0000000   0.0721688   0.1885251), wk =   0.0013021
        k(   11) = (   0.0000000   0.0721688   0.2513667), wk =   0.0013021
        k(   12) = (   0.0000000   0.0721688   0.3142084), wk =   0.0013021
        k(   13) = (   0.0000000   0.1443376   0.0000000), wk =   0.0013021
        k(   14) = (   0.0000000   0.1443376   0.0628417), wk =   0.0013021
        k(   15) = (   0.0000000   0.1443376   0.1256834), wk =   0.0013021
        k(   16) = (   0.0000000   0.1443376   0.1885251), wk =   0.0013021
        k(   17) = (   0.0000000   0.1443376   0.2513667), wk =   0.0013021
        k(   18) = (   0.0000000   0.1443376   0.3142084), wk =   0.0013021
        k(   19) = (   0.0000000   0.2165064   0.0000000), wk =   0.0013021
        k(   20) = (   0.0000000   0.2165064   0.0628417), wk =   0.0013021
        k(   21) = (   0.0000000   0.2165064   0.1256834), wk =   0.0013021
        k(   22) = (   0.0000000   0.2165064   0.1885251), wk =   0.0013021
        k(   23) = (   0.0000000   0.2165064   0.2513667), wk =   0.0013021
        k(   24) = (   0.0000000   0.2165064   0.3142084), wk =   0.0013021
        k(   25) = (   0.0000000   0.2886751   0.0000000), wk =   0.0013021
        k(   26) = (   0.0000000   0.2886751   0.0628417), wk =   0.0013021
        k(   27) = (   0.0000000   0.2886751   0.1256834), wk =   0.0013021
        k(   28) = (   0.0000000   0.2886751   0.1885251), wk =   0.0013021
        k(   29) = (   0.0000000   0.2886751   0.2513667), wk =   0.0013021
        k(   30) = (   0.0000000   0.2886751   0.3142084), wk =   0.0013021
        k(   31) = (   0.0000000   0.3608439   0.0000000), wk =   0.0013021
        k(   32) = (   0.0000000   0.3608439   0.0628417), wk =   0.0013021
        k(   33) = (   0.0000000   0.3608439   0.1256834), wk =   0.0013021
        k(   34) = (   0.0000000   0.3608439   0.1885251), wk =   0.0013021
        k(   35) = (   0.0000000   0.3608439   0.2513667), wk =   0.0013021
        k(   36) = (   0.0000000   0.3608439   0.3142084), wk =   0.0013021
        k(   37) = (   0.0000000   0.4330127   0.0000000), wk =   0.0013021
        k(   38) = (   0.0000000   0.4330127   0.0628417), wk =   0.0013021
        k(   39) = (   0.0000000   0.4330127   0.1256834), wk =   0.0013021
        k(   40) = (   0.0000000   0.4330127   0.1885251), wk =   0.0013021
        k(   41) = (   0.0000000   0.4330127   0.2513667), wk =   0.0013021
        k(   42) = (   0.0000000   0.4330127   0.3142084), wk =   0.0013021
        k(   43) = (   0.0000000   0.5051815   0.0000000), wk =   0.0013021
        k(   44) = (   0.0000000   0.5051815   0.0628417), wk =   0.0013021
        k(   45) = (   0.0000000   0.5051815   0.1256834), wk =   0.0013021
        k(   46) = (   0.0000000   0.5051815   0.1885251), wk =   0.0013021
        k(   47) = (   0.0000000   0.5051815   0.2513667), wk =   0.0013021
        k(   48) = (   0.0000000   0.5051815   0.3142084), wk =   0.0013021
        k(   49) = (   0.0000000   0.5773503   0.0000000), wk =   0.0013021
        k(   50) = (   0.0000000   0.5773503   0.0628417), wk =   0.0013021
        k(   51) = (   0.0000000   0.5773503   0.1256834), wk =   0.0013021
        k(   52) = (   0.0000000   0.5773503   0.1885251), wk =   0.0013021
        k(   53) = (   0.0000000   0.5773503   0.2513667), wk =   0.0013021
        k(   54) = (   0.0000000   0.5773503   0.3142084), wk =   0.0013021
        k(   55) = (   0.0000000   0.6495191   0.0000000), wk =   0.0013021
        k(   56) = (   0.0000000   0.6495191   0.0628417), wk =   0.0013021
        k(   57) = (   0.0000000   0.6495191   0.1256834), wk =   0.0013021
        k(   58) = (   0.0000000   0.6495191   0.1885251), wk =   0.0013021
        k(   59) = (   0.0000000   0.6495191   0.2513667), wk =   0.0013021
        k(   60) = (   0.0000000   0.6495191   0.3142084), wk =   0.0013021
        k(   61) = (   0.0000000   0.7216878   0.0000000), wk =   0.0013021
        k(   62) = (   0.0000000   0.7216878   0.0628417), wk =   0.0013021
        k(   63) = (   0.0000000   0.7216878   0.1256834), wk =   0.0013021
        k(   64) = (   0.0000000   0.7216878   0.1885251), wk =   0.0013021
        k(   65) = (   0.0000000   0.7216878   0.2513667), wk =   0.0013021
        k(   66) = (   0.0000000   0.7216878   0.3142084), wk =   0.0013021
        k(   67) = (   0.0000000   0.7938566   0.0000000), wk =   0.0013021
        k(   68) = (   0.0000000   0.7938566   0.0628417), wk =   0.0013021
        k(   69) = (   0.0000000   0.7938566   0.1256834), wk =   0.0013021
        k(   70) = (   0.0000000   0.7938566   0.1885251), wk =   0.0013021
        k(   71) = (   0.0000000   0.7938566   0.2513667), wk =   0.0013021
        k(   72) = (   0.0000000   0.7938566   0.3142084), wk =   0.0013021
        k(   73) = (   0.0000000   0.8660254   0.0000000), wk =   0.0013021
        k(   74) = (   0.0000000   0.8660254   0.0628417), wk =   0.0013021
        k(   75) = (   0.0000000   0.8660254   0.1256834), wk =   0.0013021
        k(   76) = (   0.0000000   0.8660254   0.1885251), wk =   0.0013021
        k(   77) = (   0.0000000   0.8660254   0.2513667), wk =   0.0013021
        k(   78) = (   0.0000000   0.8660254   0.3142084), wk =   0.0013021
        k(   79) = (   0.0000000   0.9381942   0.0000000), wk =   0.0013021
        k(   80) = (   0.0000000   0.9381942   0.0628417), wk =   0.0013021
        k(   81) = (   0.0000000   0.9381942   0.1256834), wk =   0.0013021
        k(   82) = (   0.0000000   0.9381942   0.1885251), wk =   0.0013021
        k(   83) = (   0.0000000   0.9381942   0.2513667), wk =   0.0013021
        k(   84) = (   0.0000000   0.9381942   0.3142084), wk =   0.0013021
        k(   85) = (   0.0000000   1.0103630   0.0000000), wk =   0.0013021
        k(   86) = (   0.0000000   1.0103630   0.0628417), wk =   0.0013021
        k(   87) = (   0.0000000   1.0103630   0.1256834), wk =   0.0013021
        k(   88) = (   0.0000000   1.0103630   0.1885251), wk =   0.0013021
        k(   89) = (   0.0000000   1.0103630   0.2513667), wk =   0.0013021
        k(   90) = (   0.0000000   1.0103630   0.3142084), wk =   0.0013021
        k(   91) = (   0.0000000   1.0825318   0.0000000), wk =   0.0013021
        k(   92) = (   0.0000000   1.0825318   0.0628417), wk =   0.0013021
        k(   93) = (   0.0000000   1.0825318   0.1256834), wk =   0.0013021
        k(   94) = (   0.0000000   1.0825318   0.1885251), wk =   0.0013021
        k(   95) = (   0.0000000   1.0825318   0.2513667), wk =   0.0013021
        k(   96) = (   0.0000000   1.0825318   0.3142084), wk =   0.0013021
        k(   97) = (   0.0625000   0.0360844   0.0000000), wk =   0.0013021
        k(   98) = (   0.0625000   0.0360844   0.0628417), wk =   0.0013021
        k(   99) = (   0.0625000   0.0360844   0.1256834), wk =   0.0013021
        k(  100) = (   0.0625000   0.0360844   0.1885251), wk =   0.0013021
        k(  101) = (   0.0625000   0.0360844   0.2513667), wk =   0.0013021
        k(  102) = (   0.0625000   0.0360844   0.3142084), wk =   0.0013021
        k(  103) = (   0.0625000   0.1082532   0.0000000), wk =   0.0013021
        k(  104) = (   0.0625000   0.1082532   0.0628417), wk =   0.0013021
        k(  105) = (   0.0625000   0.1082532   0.1256834), wk =   0.0013021
        k(  106) = (   0.0625000   0.1082532   0.1885251), wk =   0.0013021
        k(  107) = (   0.0625000   0.1082532   0.2513667), wk =   0.0013021
        k(  108) = (   0.0625000   0.1082532   0.3142084), wk =   0.0013021
        k(  109) = (   0.0625000   0.1804220   0.0000000), wk =   0.0013021
        k(  110) = (   0.0625000   0.1804220   0.0628417), wk =   0.0013021
        k(  111) = (   0.0625000   0.1804220   0.1256834), wk =   0.0013021
        k(  112) = (   0.0625000   0.1804220   0.1885251), wk =   0.0013021
        k(  113) = (   0.0625000   0.1804220   0.2513667), wk =   0.0013021
        k(  114) = (   0.0625000   0.1804220   0.3142084), wk =   0.0013021
        k(  115) = (   0.0625000   0.2525907   0.0000000), wk =   0.0013021
        k(  116) = (   0.0625000   0.2525907   0.0628417), wk =   0.0013021
        k(  117) = (   0.0625000   0.2525907   0.1256834), wk =   0.0013021
        k(  118) = (   0.0625000   0.2525907   0.1885251), wk =   0.0013021
        k(  119) = (   0.0625000   0.2525907   0.2513667), wk =   0.0013021
        k(  120) = (   0.0625000   0.2525907   0.3142084), wk =   0.0013021
        k(  121) = (   0.0625000   0.3247595   0.0000000), wk =   0.0013021
        k(  122) = (   0.0625000   0.3247595   0.0628417), wk =   0.0013021
        k(  123) = (   0.0625000   0.3247595   0.1256834), wk =   0.0013021
        k(  124) = (   0.0625000   0.3247595   0.1885251), wk =   0.0013021
        k(  125) = (   0.0625000   0.3247595   0.2513667), wk =   0.0013021
        k(  126) = (   0.0625000   0.3247595   0.3142084), wk =   0.0013021
        k(  127) = (   0.0625000   0.3969283   0.0000000), wk =   0.0013021
        k(  128) = (   0.0625000   0.3969283   0.0628417), wk =   0.0013021
        k(  129) = (   0.0625000   0.3969283   0.1256834), wk =   0.0013021
        k(  130) = (   0.0625000   0.3969283   0.1885251), wk =   0.0013021
        k(  131) = (   0.0625000   0.3969283   0.2513667), wk =   0.0013021
        k(  132) = (   0.0625000   0.3969283   0.3142084), wk =   0.0013021
        k(  133) = (   0.0625000   0.4690971   0.0000000), wk =   0.0013021
        k(  134) = (   0.0625000   0.4690971   0.0628417), wk =   0.0013021
        k(  135) = (   0.0625000   0.4690971   0.1256834), wk =   0.0013021
        k(  136) = (   0.0625000   0.4690971   0.1885251), wk =   0.0013021
        k(  137) = (   0.0625000   0.4690971   0.2513667), wk =   0.0013021
        k(  138) = (   0.0625000   0.4690971   0.3142084), wk =   0.0013021
        k(  139) = (   0.0625000   0.5412659   0.0000000), wk =   0.0013021
        k(  140) = (   0.0625000   0.5412659   0.0628417), wk =   0.0013021
        k(  141) = (   0.0625000   0.5412659   0.1256834), wk =   0.0013021
        k(  142) = (   0.0625000   0.5412659   0.1885251), wk =   0.0013021
        k(  143) = (   0.0625000   0.5412659   0.2513667), wk =   0.0013021
        k(  144) = (   0.0625000   0.5412659   0.3142084), wk =   0.0013021
        k(  145) = (   0.0625000   0.6134347   0.0000000), wk =   0.0013021
        k(  146) = (   0.0625000   0.6134347   0.0628417), wk =   0.0013021
        k(  147) = (   0.0625000   0.6134347   0.1256834), wk =   0.0013021
        k(  148) = (   0.0625000   0.6134347   0.1885251), wk =   0.0013021
        k(  149) = (   0.0625000   0.6134347   0.2513667), wk =   0.0013021
        k(  150) = (   0.0625000   0.6134347   0.3142084), wk =   0.0013021
        k(  151) = (   0.0625000   0.6856034   0.0000000), wk =   0.0013021
        k(  152) = (   0.0625000   0.6856034   0.0628417), wk =   0.0013021
        k(  153) = (   0.0625000   0.6856034   0.1256834), wk =   0.0013021
        k(  154) = (   0.0625000   0.6856034   0.1885251), wk =   0.0013021
        k(  155) = (   0.0625000   0.6856034   0.2513667), wk =   0.0013021
        k(  156) = (   0.0625000   0.6856034   0.3142084), wk =   0.0013021
        k(  157) = (   0.0625000   0.7577722   0.0000000), wk =   0.0013021
        k(  158) = (   0.0625000   0.7577722   0.0628417), wk =   0.0013021
        k(  159) = (   0.0625000   0.7577722   0.1256834), wk =   0.0013021
        k(  160) = (   0.0625000   0.7577722   0.1885251), wk =   0.0013021
        k(  161) = (   0.0625000   0.7577722   0.2513667), wk =   0.0013021
        k(  162) = (   0.0625000   0.7577722   0.3142084), wk =   0.0013021
        k(  163) = (   0.0625000   0.8299410   0.0000000), wk =   0.0013021
        k(  164) = (   0.0625000   0.8299410   0.0628417), wk =   0.0013021
        k(  165) = (   0.0625000   0.8299410   0.1256834), wk =   0.0013021
        k(  166) = (   0.0625000   0.8299410   0.1885251), wk =   0.0013021
        k(  167) = (   0.0625000   0.8299410   0.2513667), wk =   0.0013021
        k(  168) = (   0.0625000   0.8299410   0.3142084), wk =   0.0013021
        k(  169) = (   0.0625000   0.9021098   0.0000000), wk =   0.0013021
        k(  170) = (   0.0625000   0.9021098   0.0628417), wk =   0.0013021
        k(  171) = (   0.0625000   0.9021098   0.1256834), wk =   0.0013021
        k(  172) = (   0.0625000   0.9021098   0.1885251), wk =   0.0013021
        k(  173) = (   0.0625000   0.9021098   0.2513667), wk =   0.0013021
        k(  174) = (   0.0625000   0.9021098   0.3142084), wk =   0.0013021
        k(  175) = (   0.0625000   0.9742786   0.0000000), wk =   0.0013021
        k(  176) = (   0.0625000   0.9742786   0.0628417), wk =   0.0013021
        k(  177) = (   0.0625000   0.9742786   0.1256834), wk =   0.0013021
        k(  178) = (   0.0625000   0.9742786   0.1885251), wk =   0.0013021
        k(  179) = (   0.0625000   0.9742786   0.2513667), wk =   0.0013021
        k(  180) = (   0.0625000   0.9742786   0.3142084), wk =   0.0013021
        k(  181) = (   0.0625000   1.0464474   0.0000000), wk =   0.0013021
        k(  182) = (   0.0625000   1.0464474   0.0628417), wk =   0.0013021
        k(  183) = (   0.0625000   1.0464474   0.1256834), wk =   0.0013021
        k(  184) = (   0.0625000   1.0464474   0.1885251), wk =   0.0013021
        k(  185) = (   0.0625000   1.0464474   0.2513667), wk =   0.0013021
        k(  186) = (   0.0625000   1.0464474   0.3142084), wk =   0.0013021
        k(  187) = (   0.0625000   1.1186161   0.0000000), wk =   0.0013021
        k(  188) = (   0.0625000   1.1186161   0.0628417), wk =   0.0013021
        k(  189) = (   0.0625000   1.1186161   0.1256834), wk =   0.0013021
        k(  190) = (   0.0625000   1.1186161   0.1885251), wk =   0.0013021
        k(  191) = (   0.0625000   1.1186161   0.2513667), wk =   0.0013021
        k(  192) = (   0.0625000   1.1186161   0.3142084), wk =   0.0013021
        k(  193) = (   0.1250000   0.0721688   0.0000000), wk =   0.0013021
        k(  194) = (   0.1250000   0.0721688   0.0628417), wk =   0.0013021
        k(  195) = (   0.1250000   0.0721688   0.1256834), wk =   0.0013021
        k(  196) = (   0.1250000   0.0721688   0.1885251), wk =   0.0013021
        k(  197) = (   0.1250000   0.0721688   0.2513667), wk =   0.0013021
        k(  198) = (   0.1250000   0.0721688   0.3142084), wk =   0.0013021
        k(  199) = (   0.1250000   0.1443376   0.0000000), wk =   0.0013021
        k(  200) = (   0.1250000   0.1443376   0.0628417), wk =   0.0013021
        k(  201) = (   0.1250000   0.1443376   0.1256834), wk =   0.0013021
        k(  202) = (   0.1250000   0.1443376   0.1885251), wk =   0.0013021
        k(  203) = (   0.1250000   0.1443376   0.2513667), wk =   0.0013021
        k(  204) = (   0.1250000   0.1443376   0.3142084), wk =   0.0013021
        k(  205) = (   0.1250000   0.2165064   0.0000000), wk =   0.0013021
        k(  206) = (   0.1250000   0.2165064   0.0628417), wk =   0.0013021
        k(  207) = (   0.1250000   0.2165064   0.1256834), wk =   0.0013021
        k(  208) = (   0.1250000   0.2165064   0.1885251), wk =   0.0013021
        k(  209) = (   0.1250000   0.2165064   0.2513667), wk =   0.0013021
        k(  210) = (   0.1250000   0.2165064   0.3142084), wk =   0.0013021
        k(  211) = (   0.1250000   0.2886751   0.0000000), wk =   0.0013021
        k(  212) = (   0.1250000   0.2886751   0.0628417), wk =   0.0013021
        k(  213) = (   0.1250000   0.2886751   0.1256834), wk =   0.0013021
        k(  214) = (   0.1250000   0.2886751   0.1885251), wk =   0.0013021
        k(  215) = (   0.1250000   0.2886751   0.2513667), wk =   0.0013021
        k(  216) = (   0.1250000   0.2886751   0.3142084), wk =   0.0013021
        k(  217) = (   0.1250000   0.3608439   0.0000000), wk =   0.0013021
        k(  218) = (   0.1250000   0.3608439   0.0628417), wk =   0.0013021
        k(  219) = (   0.1250000   0.3608439   0.1256834), wk =   0.0013021
        k(  220) = (   0.1250000   0.3608439   0.1885251), wk =   0.0013021
        k(  221) = (   0.1250000   0.3608439   0.2513667), wk =   0.0013021
        k(  222) = (   0.1250000   0.3608439   0.3142084), wk =   0.0013021
        k(  223) = (   0.1250000   0.4330127   0.0000000), wk =   0.0013021
        k(  224) = (   0.1250000   0.4330127   0.0628417), wk =   0.0013021
        k(  225) = (   0.1250000   0.4330127   0.1256834), wk =   0.0013021
        k(  226) = (   0.1250000   0.4330127   0.1885251), wk =   0.0013021
        k(  227) = (   0.1250000   0.4330127   0.2513667), wk =   0.0013021
        k(  228) = (   0.1250000   0.4330127   0.3142084), wk =   0.0013021
        k(  229) = (   0.1250000   0.5051815   0.0000000), wk =   0.0013021
        k(  230) = (   0.1250000   0.5051815   0.0628417), wk =   0.0013021
        k(  231) = (   0.1250000   0.5051815   0.1256834), wk =   0.0013021
        k(  232) = (   0.1250000   0.5051815   0.1885251), wk =   0.0013021
        k(  233) = (   0.1250000   0.5051815   0.2513667), wk =   0.0013021
        k(  234) = (   0.1250000   0.5051815   0.3142084), wk =   0.0013021
        k(  235) = (   0.1250000   0.5773503   0.0000000), wk =   0.0013021
        k(  236) = (   0.1250000   0.5773503   0.0628417), wk =   0.0013021
        k(  237) = (   0.1250000   0.5773503   0.1256834), wk =   0.0013021
        k(  238) = (   0.1250000   0.5773503   0.1885251), wk =   0.0013021
        k(  239) = (   0.1250000   0.5773503   0.2513667), wk =   0.0013021
        k(  240) = (   0.1250000   0.5773503   0.3142084), wk =   0.0013021
        k(  241) = (   0.1250000   0.6495191   0.0000000), wk =   0.0013021
        k(  242) = (   0.1250000   0.6495191   0.0628417), wk =   0.0013021
        k(  243) = (   0.1250000   0.6495191   0.1256834), wk =   0.0013021
        k(  244) = (   0.1250000   0.6495191   0.1885251), wk =   0.0013021
        k(  245) = (   0.1250000   0.6495191   0.2513667), wk =   0.0013021
        k(  246) = (   0.1250000   0.6495191   0.3142084), wk =   0.0013021
        k(  247) = (   0.1250000   0.7216878   0.0000000), wk =   0.0013021
        k(  248) = (   0.1250000   0.7216878   0.0628417), wk =   0.0013021
        k(  249) = (   0.1250000   0.7216878   0.1256834), wk =   0.0013021
        k(  250) = (   0.1250000   0.7216878   0.1885251), wk =   0.0013021
        k(  251) = (   0.1250000   0.7216878   0.2513667), wk =   0.0013021
        k(  252) = (   0.1250000   0.7216878   0.3142084), wk =   0.0013021
        k(  253) = (   0.1250000   0.7938566   0.0000000), wk =   0.0013021
        k(  254) = (   0.1250000   0.7938566   0.0628417), wk =   0.0013021
        k(  255) = (   0.1250000   0.7938566   0.1256834), wk =   0.0013021
        k(  256) = (   0.1250000   0.7938566   0.1885251), wk =   0.0013021
        k(  257) = (   0.1250000   0.7938566   0.2513667), wk =   0.0013021
        k(  258) = (   0.1250000   0.7938566   0.3142084), wk =   0.0013021
        k(  259) = (   0.1250000   0.8660254   0.0000000), wk =   0.0013021
        k(  260) = (   0.1250000   0.8660254   0.0628417), wk =   0.0013021
        k(  261) = (   0.1250000   0.8660254   0.1256834), wk =   0.0013021
        k(  262) = (   0.1250000   0.8660254   0.1885251), wk =   0.0013021
        k(  263) = (   0.1250000   0.8660254   0.2513667), wk =   0.0013021
        k(  264) = (   0.1250000   0.8660254   0.3142084), wk =   0.0013021
        k(  265) = (   0.1250000   0.9381942   0.0000000), wk =   0.0013021
        k(  266) = (   0.1250000   0.9381942   0.0628417), wk =   0.0013021
        k(  267) = (   0.1250000   0.9381942   0.1256834), wk =   0.0013021
        k(  268) = (   0.1250000   0.9381942   0.1885251), wk =   0.0013021
        k(  269) = (   0.1250000   0.9381942   0.2513667), wk =   0.0013021
        k(  270) = (   0.1250000   0.9381942   0.3142084), wk =   0.0013021
        k(  271) = (   0.1250000   1.0103630   0.0000000), wk =   0.0013021
        k(  272) = (   0.1250000   1.0103630   0.0628417), wk =   0.0013021
        k(  273) = (   0.1250000   1.0103630   0.1256834), wk =   0.0013021
        k(  274) = (   0.1250000   1.0103630   0.1885251), wk =   0.0013021
        k(  275) = (   0.1250000   1.0103630   0.2513667), wk =   0.0013021
        k(  276) = (   0.1250000   1.0103630   0.3142084), wk =   0.0013021
        k(  277) = (   0.1250000   1.0825318   0.0000000), wk =   0.0013021
        k(  278) = (   0.1250000   1.0825318   0.0628417), wk =   0.0013021
        k(  279) = (   0.1250000   1.0825318   0.1256834), wk =   0.0013021
        k(  280) = (   0.1250000   1.0825318   0.1885251), wk =   0.0013021
        k(  281) = (   0.1250000   1.0825318   0.2513667), wk =   0.0013021
        k(  282) = (   0.1250000   1.0825318   0.3142084), wk =   0.0013021
        k(  283) = (   0.1250000   1.1547005   0.0000000), wk =   0.0013021
        k(  284) = (   0.1250000   1.1547005   0.0628417), wk =   0.0013021
        k(  285) = (   0.1250000   1.1547005   0.1256834), wk =   0.0013021
        k(  286) = (   0.1250000   1.1547005   0.1885251), wk =   0.0013021
        k(  287) = (   0.1250000   1.1547005   0.2513667), wk =   0.0013021
        k(  288) = (   0.1250000   1.1547005   0.3142084), wk =   0.0013021
        k(  289) = (   0.1875000   0.1082532   0.0000000), wk =   0.0013021
        k(  290) = (   0.1875000   0.1082532   0.0628417), wk =   0.0013021
        k(  291) = (   0.1875000   0.1082532   0.1256834), wk =   0.0013021
        k(  292) = (   0.1875000   0.1082532   0.1885251), wk =   0.0013021
        k(  293) = (   0.1875000   0.1082532   0.2513667), wk =   0.0013021
        k(  294) = (   0.1875000   0.1082532   0.3142084), wk =   0.0013021
        k(  295) = (   0.1875000   0.1804220   0.0000000), wk =   0.0013021
        k(  296) = (   0.1875000   0.1804220   0.0628417), wk =   0.0013021
        k(  297) = (   0.1875000   0.1804220   0.1256834), wk =   0.0013021
        k(  298) = (   0.1875000   0.1804220   0.1885251), wk =   0.0013021
        k(  299) = (   0.1875000   0.1804220   0.2513667), wk =   0.0013021
        k(  300) = (   0.1875000   0.1804220   0.3142084), wk =   0.0013021
        k(  301) = (   0.1875000   0.2525907   0.0000000), wk =   0.0013021
        k(  302) = (   0.1875000   0.2525907   0.0628417), wk =   0.0013021
        k(  303) = (   0.1875000   0.2525907   0.1256834), wk =   0.0013021
        k(  304) = (   0.1875000   0.2525907   0.1885251), wk =   0.0013021
        k(  305) = (   0.1875000   0.2525907   0.2513667), wk =   0.0013021
        k(  306) = (   0.1875000   0.2525907   0.3142084), wk =   0.0013021
        k(  307) = (   0.1875000   0.3247595   0.0000000), wk =   0.0013021
        k(  308) = (   0.1875000   0.3247595   0.0628417), wk =   0.0013021
        k(  309) = (   0.1875000   0.3247595   0.1256834), wk =   0.0013021
        k(  310) = (   0.1875000   0.3247595   0.1885251), wk =   0.0013021
        k(  311) = (   0.1875000   0.3247595   0.2513667), wk =   0.0013021
        k(  312) = (   0.1875000   0.3247595   0.3142084), wk =   0.0013021
        k(  313) = (   0.1875000   0.3969283   0.0000000), wk =   0.0013021
        k(  314) = (   0.1875000   0.3969283   0.0628417), wk =   0.0013021
        k(  315) = (   0.1875000   0.3969283   0.1256834), wk =   0.0013021
        k(  316) = (   0.1875000   0.3969283   0.1885251), wk =   0.0013021
        k(  317) = (   0.1875000   0.3969283   0.2513667), wk =   0.0013021
        k(  318) = (   0.1875000   0.3969283   0.3142084), wk =   0.0013021
        k(  319) = (   0.1875000   0.4690971   0.0000000), wk =   0.0013021
        k(  320) = (   0.1875000   0.4690971   0.0628417), wk =   0.0013021
        k(  321) = (   0.1875000   0.4690971   0.1256834), wk =   0.0013021
        k(  322) = (   0.1875000   0.4690971   0.1885251), wk =   0.0013021
        k(  323) = (   0.1875000   0.4690971   0.2513667), wk =   0.0013021
        k(  324) = (   0.1875000   0.4690971   0.3142084), wk =   0.0013021
        k(  325) = (   0.1875000   0.5412659   0.0000000), wk =   0.0013021
        k(  326) = (   0.1875000   0.5412659   0.0628417), wk =   0.0013021
        k(  327) = (   0.1875000   0.5412659   0.1256834), wk =   0.0013021
        k(  328) = (   0.1875000   0.5412659   0.1885251), wk =   0.0013021
        k(  329) = (   0.1875000   0.5412659   0.2513667), wk =   0.0013021
        k(  330) = (   0.1875000   0.5412659   0.3142084), wk =   0.0013021
        k(  331) = (   0.1875000   0.6134347   0.0000000), wk =   0.0013021
        k(  332) = (   0.1875000   0.6134347   0.0628417), wk =   0.0013021
        k(  333) = (   0.1875000   0.6134347   0.1256834), wk =   0.0013021
        k(  334) = (   0.1875000   0.6134347   0.1885251), wk =   0.0013021
        k(  335) = (   0.1875000   0.6134347   0.2513667), wk =   0.0013021
        k(  336) = (   0.1875000   0.6134347   0.3142084), wk =   0.0013021
        k(  337) = (   0.1875000   0.6856034   0.0000000), wk =   0.0013021
        k(  338) = (   0.1875000   0.6856034   0.0628417), wk =   0.0013021
        k(  339) = (   0.1875000   0.6856034   0.1256834), wk =   0.0013021
        k(  340) = (   0.1875000   0.6856034   0.1885251), wk =   0.0013021
        k(  341) = (   0.1875000   0.6856034   0.2513667), wk =   0.0013021
        k(  342) = (   0.1875000   0.6856034   0.3142084), wk =   0.0013021
        k(  343) = (   0.1875000   0.7577722   0.0000000), wk =   0.0013021
        k(  344) = (   0.1875000   0.7577722   0.0628417), wk =   0.0013021
        k(  345) = (   0.1875000   0.7577722   0.1256834), wk =   0.0013021
        k(  346) = (   0.1875000   0.7577722   0.1885251), wk =   0.0013021
        k(  347) = (   0.1875000   0.7577722   0.2513667), wk =   0.0013021
        k(  348) = (   0.1875000   0.7577722   0.3142084), wk =   0.0013021
        k(  349) = (   0.1875000   0.8299410   0.0000000), wk =   0.0013021
        k(  350) = (   0.1875000   0.8299410   0.0628417), wk =   0.0013021
        k(  351) = (   0.1875000   0.8299410   0.1256834), wk =   0.0013021
        k(  352) = (   0.1875000   0.8299410   0.1885251), wk =   0.0013021
        k(  353) = (   0.1875000   0.8299410   0.2513667), wk =   0.0013021
        k(  354) = (   0.1875000   0.8299410   0.3142084), wk =   0.0013021
        k(  355) = (   0.1875000   0.9021098   0.0000000), wk =   0.0013021
        k(  356) = (   0.1875000   0.9021098   0.0628417), wk =   0.0013021
        k(  357) = (   0.1875000   0.9021098   0.1256834), wk =   0.0013021
        k(  358) = (   0.1875000   0.9021098   0.1885251), wk =   0.0013021
        k(  359) = (   0.1875000   0.9021098   0.2513667), wk =   0.0013021
        k(  360) = (   0.1875000   0.9021098   0.3142084), wk =   0.0013021
        k(  361) = (   0.1875000   0.9742786   0.0000000), wk =   0.0013021
        k(  362) = (   0.1875000   0.9742786   0.0628417), wk =   0.0013021
        k(  363) = (   0.1875000   0.9742786   0.1256834), wk =   0.0013021
        k(  364) = (   0.1875000   0.9742786   0.1885251), wk =   0.0013021
        k(  365) = (   0.1875000   0.9742786   0.2513667), wk =   0.0013021
        k(  366) = (   0.1875000   0.9742786   0.3142084), wk =   0.0013021
        k(  367) = (   0.1875000   1.0464474   0.0000000), wk =   0.0013021
        k(  368) = (   0.1875000   1.0464474   0.0628417), wk =   0.0013021
        k(  369) = (   0.1875000   1.0464474   0.1256834), wk =   0.0013021
        k(  370) = (   0.1875000   1.0464474   0.1885251), wk =   0.0013021
        k(  371) = (   0.1875000   1.0464474   0.2513667), wk =   0.0013021
        k(  372) = (   0.1875000   1.0464474   0.3142084), wk =   0.0013021
        k(  373) = (   0.1875000   1.1186161   0.0000000), wk =   0.0013021
        k(  374) = (   0.1875000   1.1186161   0.0628417), wk =   0.0013021
        k(  375) = (   0.1875000   1.1186161   0.1256834), wk =   0.0013021
        k(  376) = (   0.1875000   1.1186161   0.1885251), wk =   0.0013021
        k(  377) = (   0.1875000   1.1186161   0.2513667), wk =   0.0013021
        k(  378) = (   0.1875000   1.1186161   0.3142084), wk =   0.0013021
        k(  379) = (   0.1875000   1.1907849   0.0000000), wk =   0.0013021
        k(  380) = (   0.1875000   1.1907849   0.0628417), wk =   0.0013021
        k(  381) = (   0.1875000   1.1907849   0.1256834), wk =   0.0013021
        k(  382) = (   0.1875000   1.1907849   0.1885251), wk =   0.0013021
        k(  383) = (   0.1875000   1.1907849   0.2513667), wk =   0.0013021
        k(  384) = (   0.1875000   1.1907849   0.3142084), wk =   0.0013021
        k(  385) = (   0.2500000   0.1443376   0.0000000), wk =   0.0013021
        k(  386) = (   0.2500000   0.1443376   0.0628417), wk =   0.0013021
        k(  387) = (   0.2500000   0.1443376   0.1256834), wk =   0.0013021
        k(  388) = (   0.2500000   0.1443376   0.1885251), wk =   0.0013021
        k(  389) = (   0.2500000   0.1443376   0.2513667), wk =   0.0013021
        k(  390) = (   0.2500000   0.1443376   0.3142084), wk =   0.0013021
        k(  391) = (   0.2500000   0.2165064   0.0000000), wk =   0.0013021
        k(  392) = (   0.2500000   0.2165064   0.0628417), wk =   0.0013021
        k(  393) = (   0.2500000   0.2165064   0.1256834), wk =   0.0013021
        k(  394) = (   0.2500000   0.2165064   0.1885251), wk =   0.0013021
        k(  395) = (   0.2500000   0.2165064   0.2513667), wk =   0.0013021
        k(  396) = (   0.2500000   0.2165064   0.3142084), wk =   0.0013021
        k(  397) = (   0.2500000   0.2886751   0.0000000), wk =   0.0013021
        k(  398) = (   0.2500000   0.2886751   0.0628417), wk =   0.0013021
        k(  399) = (   0.2500000   0.2886751   0.1256834), wk =   0.0013021
        k(  400) = (   0.2500000   0.2886751   0.1885251), wk =   0.0013021
        k(  401) = (   0.2500000   0.2886751   0.2513667), wk =   0.0013021
        k(  402) = (   0.2500000   0.2886751   0.3142084), wk =   0.0013021
        k(  403) = (   0.2500000   0.3608439   0.0000000), wk =   0.0013021
        k(  404) = (   0.2500000   0.3608439   0.0628417), wk =   0.0013021
        k(  405) = (   0.2500000   0.3608439   0.1256834), wk =   0.0013021
        k(  406) = (   0.2500000   0.3608439   0.1885251), wk =   0.0013021
        k(  407) = (   0.2500000   0.3608439   0.2513667), wk =   0.0013021
        k(  408) = (   0.2500000   0.3608439   0.3142084), wk =   0.0013021
        k(  409) = (   0.2500000   0.4330127   0.0000000), wk =   0.0013021
        k(  410) = (   0.2500000   0.4330127   0.0628417), wk =   0.0013021
        k(  411) = (   0.2500000   0.4330127   0.1256834), wk =   0.0013021
        k(  412) = (   0.2500000   0.4330127   0.1885251), wk =   0.0013021
        k(  413) = (   0.2500000   0.4330127   0.2513667), wk =   0.0013021
        k(  414) = (   0.2500000   0.4330127   0.3142084), wk =   0.0013021
        k(  415) = (   0.2500000   0.5051815   0.0000000), wk =   0.0013021
        k(  416) = (   0.2500000   0.5051815   0.0628417), wk =   0.0013021
        k(  417) = (   0.2500000   0.5051815   0.1256834), wk =   0.0013021
        k(  418) = (   0.2500000   0.5051815   0.1885251), wk =   0.0013021
        k(  419) = (   0.2500000   0.5051815   0.2513667), wk =   0.0013021
        k(  420) = (   0.2500000   0.5051815   0.3142084), wk =   0.0013021
        k(  421) = (   0.2500000   0.5773503   0.0000000), wk =   0.0013021
        k(  422) = (   0.2500000   0.5773503   0.0628417), wk =   0.0013021
        k(  423) = (   0.2500000   0.5773503   0.1256834), wk =   0.0013021
        k(  424) = (   0.2500000   0.5773503   0.1885251), wk =   0.0013021
        k(  425) = (   0.2500000   0.5773503   0.2513667), wk =   0.0013021
        k(  426) = (   0.2500000   0.5773503   0.3142084), wk =   0.0013021
        k(  427) = (   0.2500000   0.6495191   0.0000000), wk =   0.0013021
        k(  428) = (   0.2500000   0.6495191   0.0628417), wk =   0.0013021
        k(  429) = (   0.2500000   0.6495191   0.1256834), wk =   0.0013021
        k(  430) = (   0.2500000   0.6495191   0.1885251), wk =   0.0013021
        k(  431) = (   0.2500000   0.6495191   0.2513667), wk =   0.0013021
        k(  432) = (   0.2500000   0.6495191   0.3142084), wk =   0.0013021
        k(  433) = (   0.2500000   0.7216878   0.0000000), wk =   0.0013021
        k(  434) = (   0.2500000   0.7216878   0.0628417), wk =   0.0013021
        k(  435) = (   0.2500000   0.7216878   0.1256834), wk =   0.0013021
        k(  436) = (   0.2500000   0.7216878   0.1885251), wk =   0.0013021
        k(  437) = (   0.2500000   0.7216878   0.2513667), wk =   0.0013021
        k(  438) = (   0.2500000   0.7216878   0.3142084), wk =   0.0013021
        k(  439) = (   0.2500000   0.7938566   0.0000000), wk =   0.0013021
        k(  440) = (   0.2500000   0.7938566   0.0628417), wk =   0.0013021
        k(  441) = (   0.2500000   0.7938566   0.1256834), wk =   0.0013021
        k(  442) = (   0.2500000   0.7938566   0.1885251), wk =   0.0013021
        k(  443) = (   0.2500000   0.7938566   0.2513667), wk =   0.0013021
        k(  444) = (   0.2500000   0.7938566   0.3142084), wk =   0.0013021
        k(  445) = (   0.2500000   0.8660254   0.0000000), wk =   0.0013021
        k(  446) = (   0.2500000   0.8660254   0.0628417), wk =   0.0013021
        k(  447) = (   0.2500000   0.8660254   0.1256834), wk =   0.0013021
        k(  448) = (   0.2500000   0.8660254   0.1885251), wk =   0.0013021
        k(  449) = (   0.2500000   0.8660254   0.2513667), wk =   0.0013021
        k(  450) = (   0.2500000   0.8660254   0.3142084), wk =   0.0013021
        k(  451) = (   0.2500000   0.9381942   0.0000000), wk =   0.0013021
        k(  452) = (   0.2500000   0.9381942   0.0628417), wk =   0.0013021
        k(  453) = (   0.2500000   0.9381942   0.1256834), wk =   0.0013021
        k(  454) = (   0.2500000   0.9381942   0.1885251), wk =   0.0013021
        k(  455) = (   0.2500000   0.9381942   0.2513667), wk =   0.0013021
        k(  456) = (   0.2500000   0.9381942   0.3142084), wk =   0.0013021
        k(  457) = (   0.2500000   1.0103630   0.0000000), wk =   0.0013021
        k(  458) = (   0.2500000   1.0103630   0.0628417), wk =   0.0013021
        k(  459) = (   0.2500000   1.0103630   0.1256834), wk =   0.0013021
        k(  460) = (   0.2500000   1.0103630   0.1885251), wk =   0.0013021
        k(  461) = (   0.2500000   1.0103630   0.2513667), wk =   0.0013021
        k(  462) = (   0.2500000   1.0103630   0.3142084), wk =   0.0013021
        k(  463) = (   0.2500000   1.0825318   0.0000000), wk =   0.0013021
        k(  464) = (   0.2500000   1.0825318   0.0628417), wk =   0.0013021
        k(  465) = (   0.2500000   1.0825318   0.1256834), wk =   0.0013021
        k(  466) = (   0.2500000   1.0825318   0.1885251), wk =   0.0013021
        k(  467) = (   0.2500000   1.0825318   0.2513667), wk =   0.0013021
        k(  468) = (   0.2500000   1.0825318   0.3142084), wk =   0.0013021
        k(  469) = (   0.2500000   1.1547005   0.0000000), wk =   0.0013021
        k(  470) = (   0.2500000   1.1547005   0.0628417), wk =   0.0013021
        k(  471) = (   0.2500000   1.1547005   0.1256834), wk =   0.0013021
        k(  472) = (   0.2500000   1.1547005   0.1885251), wk =   0.0013021
        k(  473) = (   0.2500000   1.1547005   0.2513667), wk =   0.0013021
        k(  474) = (   0.2500000   1.1547005   0.3142084), wk =   0.0013021
        k(  475) = (   0.2500000   1.2268693   0.0000000), wk =   0.0013021
        k(  476) = (   0.2500000   1.2268693   0.0628417), wk =   0.0013021
        k(  477) = (   0.2500000   1.2268693   0.1256834), wk =   0.0013021
        k(  478) = (   0.2500000   1.2268693   0.1885251), wk =   0.0013021
        k(  479) = (   0.2500000   1.2268693   0.2513667), wk =   0.0013021
        k(  480) = (   0.2500000   1.2268693   0.3142084), wk =   0.0013021
        k(  481) = (   0.3125000   0.1804220   0.0000000), wk =   0.0013021
        k(  482) = (   0.3125000   0.1804220   0.0628417), wk =   0.0013021
        k(  483) = (   0.3125000   0.1804220   0.1256834), wk =   0.0013021
        k(  484) = (   0.3125000   0.1804220   0.1885251), wk =   0.0013021
        k(  485) = (   0.3125000   0.1804220   0.2513667), wk =   0.0013021
        k(  486) = (   0.3125000   0.1804220   0.3142084), wk =   0.0013021
        k(  487) = (   0.3125000   0.2525907   0.0000000), wk =   0.0013021
        k(  488) = (   0.3125000   0.2525907   0.0628417), wk =   0.0013021
        k(  489) = (   0.3125000   0.2525907   0.1256834), wk =   0.0013021
        k(  490) = (   0.3125000   0.2525907   0.1885251), wk =   0.0013021
        k(  491) = (   0.3125000   0.2525907   0.2513667), wk =   0.0013021
        k(  492) = (   0.3125000   0.2525907   0.3142084), wk =   0.0013021
        k(  493) = (   0.3125000   0.3247595   0.0000000), wk =   0.0013021
        k(  494) = (   0.3125000   0.3247595   0.0628417), wk =   0.0013021
        k(  495) = (   0.3125000   0.3247595   0.1256834), wk =   0.0013021
        k(  496) = (   0.3125000   0.3247595   0.1885251), wk =   0.0013021
        k(  497) = (   0.3125000   0.3247595   0.2513667), wk =   0.0013021
        k(  498) = (   0.3125000   0.3247595   0.3142084), wk =   0.0013021
        k(  499) = (   0.3125000   0.3969283   0.0000000), wk =   0.0013021
        k(  500) = (   0.3125000   0.3969283   0.0628417), wk =   0.0013021
        k(  501) = (   0.3125000   0.3969283   0.1256834), wk =   0.0013021
        k(  502) = (   0.3125000   0.3969283   0.1885251), wk =   0.0013021
        k(  503) = (   0.3125000   0.3969283   0.2513667), wk =   0.0013021
        k(  504) = (   0.3125000   0.3969283   0.3142084), wk =   0.0013021
        k(  505) = (   0.3125000   0.4690971   0.0000000), wk =   0.0013021
        k(  506) = (   0.3125000   0.4690971   0.0628417), wk =   0.0013021
        k(  507) = (   0.3125000   0.4690971   0.1256834), wk =   0.0013021
        k(  508) = (   0.3125000   0.4690971   0.1885251), wk =   0.0013021
        k(  509) = (   0.3125000   0.4690971   0.2513667), wk =   0.0013021
        k(  510) = (   0.3125000   0.4690971   0.3142084), wk =   0.0013021
        k(  511) = (   0.3125000   0.5412659   0.0000000), wk =   0.0013021
        k(  512) = (   0.3125000   0.5412659   0.0628417), wk =   0.0013021
        k(  513) = (   0.3125000   0.5412659   0.1256834), wk =   0.0013021
        k(  514) = (   0.3125000   0.5412659   0.1885251), wk =   0.0013021
        k(  515) = (   0.3125000   0.5412659   0.2513667), wk =   0.0013021
        k(  516) = (   0.3125000   0.5412659   0.3142084), wk =   0.0013021
        k(  517) = (   0.3125000   0.6134347   0.0000000), wk =   0.0013021
        k(  518) = (   0.3125000   0.6134347   0.0628417), wk =   0.0013021
        k(  519) = (   0.3125000   0.6134347   0.1256834), wk =   0.0013021
        k(  520) = (   0.3125000   0.6134347   0.1885251), wk =   0.0013021
        k(  521) = (   0.3125000   0.6134347   0.2513667), wk =   0.0013021
        k(  522) = (   0.3125000   0.6134347   0.3142084), wk =   0.0013021
        k(  523) = (   0.3125000   0.6856034   0.0000000), wk =   0.0013021
        k(  524) = (   0.3125000   0.6856034   0.0628417), wk =   0.0013021
        k(  525) = (   0.3125000   0.6856034   0.1256834), wk =   0.0013021
        k(  526) = (   0.3125000   0.6856034   0.1885251), wk =   0.0013021
        k(  527) = (   0.3125000   0.6856034   0.2513667), wk =   0.0013021
        k(  528) = (   0.3125000   0.6856034   0.3142084), wk =   0.0013021
        k(  529) = (   0.3125000   0.7577722   0.0000000), wk =   0.0013021
        k(  530) = (   0.3125000   0.7577722   0.0628417), wk =   0.0013021
        k(  531) = (   0.3125000   0.7577722   0.1256834), wk =   0.0013021
        k(  532) = (   0.3125000   0.7577722   0.1885251), wk =   0.0013021
        k(  533) = (   0.3125000   0.7577722   0.2513667), wk =   0.0013021
        k(  534) = (   0.3125000   0.7577722   0.3142084), wk =   0.0013021
        k(  535) = (   0.3125000   0.8299410   0.0000000), wk =   0.0013021
        k(  536) = (   0.3125000   0.8299410   0.0628417), wk =   0.0013021
        k(  537) = (   0.3125000   0.8299410   0.1256834), wk =   0.0013021
        k(  538) = (   0.3125000   0.8299410   0.1885251), wk =   0.0013021
        k(  539) = (   0.3125000   0.8299410   0.2513667), wk =   0.0013021
        k(  540) = (   0.3125000   0.8299410   0.3142084), wk =   0.0013021
        k(  541) = (   0.3125000   0.9021098   0.0000000), wk =   0.0013021
        k(  542) = (   0.3125000   0.9021098   0.0628417), wk =   0.0013021
        k(  543) = (   0.3125000   0.9021098   0.1256834), wk =   0.0013021
        k(  544) = (   0.3125000   0.9021098   0.1885251), wk =   0.0013021
        k(  545) = (   0.3125000   0.9021098   0.2513667), wk =   0.0013021
        k(  546) = (   0.3125000   0.9021098   0.3142084), wk =   0.0013021
        k(  547) = (   0.3125000   0.9742786   0.0000000), wk =   0.0013021
        k(  548) = (   0.3125000   0.9742786   0.0628417), wk =   0.0013021
        k(  549) = (   0.3125000   0.9742786   0.1256834), wk =   0.0013021
        k(  550) = (   0.3125000   0.9742786   0.1885251), wk =   0.0013021
        k(  551) = (   0.3125000   0.9742786   0.2513667), wk =   0.0013021
        k(  552) = (   0.3125000   0.9742786   0.3142084), wk =   0.0013021
        k(  553) = (   0.3125000   1.0464474   0.0000000), wk =   0.0013021
        k(  554) = (   0.3125000   1.0464474   0.0628417), wk =   0.0013021
        k(  555) = (   0.3125000   1.0464474   0.1256834), wk =   0.0013021
        k(  556) = (   0.3125000   1.0464474   0.1885251), wk =   0.0013021
        k(  557) = (   0.3125000   1.0464474   0.2513667), wk =   0.0013021
        k(  558) = (   0.3125000   1.0464474   0.3142084), wk =   0.0013021
        k(  559) = (   0.3125000   1.1186161   0.0000000), wk =   0.0013021
        k(  560) = (   0.3125000   1.1186161   0.0628417), wk =   0.0013021
        k(  561) = (   0.3125000   1.1186161   0.1256834), wk =   0.0013021
        k(  562) = (   0.3125000   1.1186161   0.1885251), wk =   0.0013021
        k(  563) = (   0.3125000   1.1186161   0.2513667), wk =   0.0013021
        k(  564) = (   0.3125000   1.1186161   0.3142084), wk =   0.0013021
        k(  565) = (   0.3125000   1.1907849   0.0000000), wk =   0.0013021
        k(  566) = (   0.3125000   1.1907849   0.0628417), wk =   0.0013021
        k(  567) = (   0.3125000   1.1907849   0.1256834), wk =   0.0013021
        k(  568) = (   0.3125000   1.1907849   0.1885251), wk =   0.0013021
        k(  569) = (   0.3125000   1.1907849   0.2513667), wk =   0.0013021
        k(  570) = (   0.3125000   1.1907849   0.3142084), wk =   0.0013021
        k(  571) = (   0.3125000   1.2629537   0.0000000), wk =   0.0013021
        k(  572) = (   0.3125000   1.2629537   0.0628417), wk =   0.0013021
        k(  573) = (   0.3125000   1.2629537   0.1256834), wk =   0.0013021
        k(  574) = (   0.3125000   1.2629537   0.1885251), wk =   0.0013021
        k(  575) = (   0.3125000   1.2629537   0.2513667), wk =   0.0013021
        k(  576) = (   0.3125000   1.2629537   0.3142084), wk =   0.0013021
        k(  577) = (   0.3750000   0.2165064   0.0000000), wk =   0.0013021
        k(  578) = (   0.3750000   0.2165064   0.0628417), wk =   0.0013021
        k(  579) = (   0.3750000   0.2165064   0.1256834), wk =   0.0013021
        k(  580) = (   0.3750000   0.2165064   0.1885251), wk =   0.0013021
        k(  581) = (   0.3750000   0.2165064   0.2513667), wk =   0.0013021
        k(  582) = (   0.3750000   0.2165064   0.3142084), wk =   0.0013021
        k(  583) = (   0.3750000   0.2886751   0.0000000), wk =   0.0013021
        k(  584) = (   0.3750000   0.2886751   0.0628417), wk =   0.0013021
        k(  585) = (   0.3750000   0.2886751   0.1256834), wk =   0.0013021
        k(  586) = (   0.3750000   0.2886751   0.1885251), wk =   0.0013021
        k(  587) = (   0.3750000   0.2886751   0.2513667), wk =   0.0013021
        k(  588) = (   0.3750000   0.2886751   0.3142084), wk =   0.0013021
        k(  589) = (   0.3750000   0.3608439   0.0000000), wk =   0.0013021
        k(  590) = (   0.3750000   0.3608439   0.0628417), wk =   0.0013021
        k(  591) = (   0.3750000   0.3608439   0.1256834), wk =   0.0013021
        k(  592) = (   0.3750000   0.3608439   0.1885251), wk =   0.0013021
        k(  593) = (   0.3750000   0.3608439   0.2513667), wk =   0.0013021
        k(  594) = (   0.3750000   0.3608439   0.3142084), wk =   0.0013021
        k(  595) = (   0.3750000   0.4330127   0.0000000), wk =   0.0013021
        k(  596) = (   0.3750000   0.4330127   0.0628417), wk =   0.0013021
        k(  597) = (   0.3750000   0.4330127   0.1256834), wk =   0.0013021
        k(  598) = (   0.3750000   0.4330127   0.1885251), wk =   0.0013021
        k(  599) = (   0.3750000   0.4330127   0.2513667), wk =   0.0013021
        k(  600) = (   0.3750000   0.4330127   0.3142084), wk =   0.0013021
        k(  601) = (   0.3750000   0.5051815   0.0000000), wk =   0.0013021
        k(  602) = (   0.3750000   0.5051815   0.0628417), wk =   0.0013021
        k(  603) = (   0.3750000   0.5051815   0.1256834), wk =   0.0013021
        k(  604) = (   0.3750000   0.5051815   0.1885251), wk =   0.0013021
        k(  605) = (   0.3750000   0.5051815   0.2513667), wk =   0.0013021
        k(  606) = (   0.3750000   0.5051815   0.3142084), wk =   0.0013021
        k(  607) = (   0.3750000   0.5773503   0.0000000), wk =   0.0013021
        k(  608) = (   0.3750000   0.5773503   0.0628417), wk =   0.0013021
        k(  609) = (   0.3750000   0.5773503   0.1256834), wk =   0.0013021
        k(  610) = (   0.3750000   0.5773503   0.1885251), wk =   0.0013021
        k(  611) = (   0.3750000   0.5773503   0.2513667), wk =   0.0013021
        k(  612) = (   0.3750000   0.5773503   0.3142084), wk =   0.0013021
        k(  613) = (   0.3750000   0.6495191   0.0000000), wk =   0.0013021
        k(  614) = (   0.3750000   0.6495191   0.0628417), wk =   0.0013021
        k(  615) = (   0.3750000   0.6495191   0.1256834), wk =   0.0013021
        k(  616) = (   0.3750000   0.6495191   0.1885251), wk =   0.0013021
        k(  617) = (   0.3750000   0.6495191   0.2513667), wk =   0.0013021
        k(  618) = (   0.3750000   0.6495191   0.3142084), wk =   0.0013021
        k(  619) = (   0.3750000   0.7216878   0.0000000), wk =   0.0013021
        k(  620) = (   0.3750000   0.7216878   0.0628417), wk =   0.0013021
        k(  621) = (   0.3750000   0.7216878   0.1256834), wk =   0.0013021
        k(  622) = (   0.3750000   0.7216878   0.1885251), wk =   0.0013021
        k(  623) = (   0.3750000   0.7216878   0.2513667), wk =   0.0013021
        k(  624) = (   0.3750000   0.7216878   0.3142084), wk =   0.0013021
        k(  625) = (   0.3750000   0.7938566   0.0000000), wk =   0.0013021
        k(  626) = (   0.3750000   0.7938566   0.0628417), wk =   0.0013021
        k(  627) = (   0.3750000   0.7938566   0.1256834), wk =   0.0013021
        k(  628) = (   0.3750000   0.7938566   0.1885251), wk =   0.0013021
        k(  629) = (   0.3750000   0.7938566   0.2513667), wk =   0.0013021
        k(  630) = (   0.3750000   0.7938566   0.3142084), wk =   0.0013021
        k(  631) = (   0.3750000   0.8660254   0.0000000), wk =   0.0013021
        k(  632) = (   0.3750000   0.8660254   0.0628417), wk =   0.0013021
        k(  633) = (   0.3750000   0.8660254   0.1256834), wk =   0.0013021
        k(  634) = (   0.3750000   0.8660254   0.1885251), wk =   0.0013021
        k(  635) = (   0.3750000   0.8660254   0.2513667), wk =   0.0013021
        k(  636) = (   0.3750000   0.8660254   0.3142084), wk =   0.0013021
        k(  637) = (   0.3750000   0.9381942   0.0000000), wk =   0.0013021
        k(  638) = (   0.3750000   0.9381942   0.0628417), wk =   0.0013021
        k(  639) = (   0.3750000   0.9381942   0.1256834), wk =   0.0013021
        k(  640) = (   0.3750000   0.9381942   0.1885251), wk =   0.0013021
        k(  641) = (   0.3750000   0.9381942   0.2513667), wk =   0.0013021
        k(  642) = (   0.3750000   0.9381942   0.3142084), wk =   0.0013021
        k(  643) = (   0.3750000   1.0103630   0.0000000), wk =   0.0013021
        k(  644) = (   0.3750000   1.0103630   0.0628417), wk =   0.0013021
        k(  645) = (   0.3750000   1.0103630   0.1256834), wk =   0.0013021
        k(  646) = (   0.3750000   1.0103630   0.1885251), wk =   0.0013021
        k(  647) = (   0.3750000   1.0103630   0.2513667), wk =   0.0013021
        k(  648) = (   0.3750000   1.0103630   0.3142084), wk =   0.0013021
        k(  649) = (   0.3750000   1.0825318   0.0000000), wk =   0.0013021
        k(  650) = (   0.3750000   1.0825318   0.0628417), wk =   0.0013021
        k(  651) = (   0.3750000   1.0825318   0.1256834), wk =   0.0013021
        k(  652) = (   0.3750000   1.0825318   0.1885251), wk =   0.0013021
        k(  653) = (   0.3750000   1.0825318   0.2513667), wk =   0.0013021
        k(  654) = (   0.3750000   1.0825318   0.3142084), wk =   0.0013021
        k(  655) = (   0.3750000   1.1547005   0.0000000), wk =   0.0013021
        k(  656) = (   0.3750000   1.1547005   0.0628417), wk =   0.0013021
        k(  657) = (   0.3750000   1.1547005   0.1256834), wk =   0.0013021
        k(  658) = (   0.3750000   1.1547005   0.1885251), wk =   0.0013021
        k(  659) = (   0.3750000   1.1547005   0.2513667), wk =   0.0013021
        k(  660) = (   0.3750000   1.1547005   0.3142084), wk =   0.0013021
        k(  661) = (   0.3750000   1.2268693   0.0000000), wk =   0.0013021
        k(  662) = (   0.3750000   1.2268693   0.0628417), wk =   0.0013021
        k(  663) = (   0.3750000   1.2268693   0.1256834), wk =   0.0013021
        k(  664) = (   0.3750000   1.2268693   0.1885251), wk =   0.0013021
        k(  665) = (   0.3750000   1.2268693   0.2513667), wk =   0.0013021
        k(  666) = (   0.3750000   1.2268693   0.3142084), wk =   0.0013021
        k(  667) = (   0.3750000   1.2990381   0.0000000), wk =   0.0013021
        k(  668) = (   0.3750000   1.2990381   0.0628417), wk =   0.0013021
        k(  669) = (   0.3750000   1.2990381   0.1256834), wk =   0.0013021
        k(  670) = (   0.3750000   1.2990381   0.1885251), wk =   0.0013021
        k(  671) = (   0.3750000   1.2990381   0.2513667), wk =   0.0013021
        k(  672) = (   0.3750000   1.2990381   0.3142084), wk =   0.0013021
        k(  673) = (   0.4375000   0.2525907   0.0000000), wk =   0.0013021
        k(  674) = (   0.4375000   0.2525907   0.0628417), wk =   0.0013021
        k(  675) = (   0.4375000   0.2525907   0.1256834), wk =   0.0013021
        k(  676) = (   0.4375000   0.2525907   0.1885251), wk =   0.0013021
        k(  677) = (   0.4375000   0.2525907   0.2513667), wk =   0.0013021
        k(  678) = (   0.4375000   0.2525907   0.3142084), wk =   0.0013021
        k(  679) = (   0.4375000   0.3247595   0.0000000), wk =   0.0013021
        k(  680) = (   0.4375000   0.3247595   0.0628417), wk =   0.0013021
        k(  681) = (   0.4375000   0.3247595   0.1256834), wk =   0.0013021
        k(  682) = (   0.4375000   0.3247595   0.1885251), wk =   0.0013021
        k(  683) = (   0.4375000   0.3247595   0.2513667), wk =   0.0013021
        k(  684) = (   0.4375000   0.3247595   0.3142084), wk =   0.0013021
        k(  685) = (   0.4375000   0.3969283   0.0000000), wk =   0.0013021
        k(  686) = (   0.4375000   0.3969283   0.0628417), wk =   0.0013021
        k(  687) = (   0.4375000   0.3969283   0.1256834), wk =   0.0013021
        k(  688) = (   0.4375000   0.3969283   0.1885251), wk =   0.0013021
        k(  689) = (   0.4375000   0.3969283   0.2513667), wk =   0.0013021
        k(  690) = (   0.4375000   0.3969283   0.3142084), wk =   0.0013021
        k(  691) = (   0.4375000   0.4690971   0.0000000), wk =   0.0013021
        k(  692) = (   0.4375000   0.4690971   0.0628417), wk =   0.0013021
        k(  693) = (   0.4375000   0.4690971   0.1256834), wk =   0.0013021
        k(  694) = (   0.4375000   0.4690971   0.1885251), wk =   0.0013021
        k(  695) = (   0.4375000   0.4690971   0.2513667), wk =   0.0013021
        k(  696) = (   0.4375000   0.4690971   0.3142084), wk =   0.0013021
        k(  697) = (   0.4375000   0.5412659   0.0000000), wk =   0.0013021
        k(  698) = (   0.4375000   0.5412659   0.0628417), wk =   0.0013021
        k(  699) = (   0.4375000   0.5412659   0.1256834), wk =   0.0013021
        k(  700) = (   0.4375000   0.5412659   0.1885251), wk =   0.0013021
        k(  701) = (   0.4375000   0.5412659   0.2513667), wk =   0.0013021
        k(  702) = (   0.4375000   0.5412659   0.3142084), wk =   0.0013021
        k(  703) = (   0.4375000   0.6134347   0.0000000), wk =   0.0013021
        k(  704) = (   0.4375000   0.6134347   0.0628417), wk =   0.0013021
        k(  705) = (   0.4375000   0.6134347   0.1256834), wk =   0.0013021
        k(  706) = (   0.4375000   0.6134347   0.1885251), wk =   0.0013021
        k(  707) = (   0.4375000   0.6134347   0.2513667), wk =   0.0013021
        k(  708) = (   0.4375000   0.6134347   0.3142084), wk =   0.0013021
        k(  709) = (   0.4375000   0.6856034   0.0000000), wk =   0.0013021
        k(  710) = (   0.4375000   0.6856034   0.0628417), wk =   0.0013021
        k(  711) = (   0.4375000   0.6856034   0.1256834), wk =   0.0013021
        k(  712) = (   0.4375000   0.6856034   0.1885251), wk =   0.0013021
        k(  713) = (   0.4375000   0.6856034   0.2513667), wk =   0.0013021
        k(  714) = (   0.4375000   0.6856034   0.3142084), wk =   0.0013021
        k(  715) = (   0.4375000   0.7577722   0.0000000), wk =   0.0013021
        k(  716) = (   0.4375000   0.7577722   0.0628417), wk =   0.0013021
        k(  717) = (   0.4375000   0.7577722   0.1256834), wk =   0.0013021
        k(  718) = (   0.4375000   0.7577722   0.1885251), wk =   0.0013021
        k(  719) = (   0.4375000   0.7577722   0.2513667), wk =   0.0013021
        k(  720) = (   0.4375000   0.7577722   0.3142084), wk =   0.0013021
        k(  721) = (   0.4375000   0.8299410   0.0000000), wk =   0.0013021
        k(  722) = (   0.4375000   0.8299410   0.0628417), wk =   0.0013021
        k(  723) = (   0.4375000   0.8299410   0.1256834), wk =   0.0013021
        k(  724) = (   0.4375000   0.8299410   0.1885251), wk =   0.0013021
        k(  725) = (   0.4375000   0.8299410   0.2513667), wk =   0.0013021
        k(  726) = (   0.4375000   0.8299410   0.3142084), wk =   0.0013021
        k(  727) = (   0.4375000   0.9021098   0.0000000), wk =   0.0013021
        k(  728) = (   0.4375000   0.9021098   0.0628417), wk =   0.0013021
        k(  729) = (   0.4375000   0.9021098   0.1256834), wk =   0.0013021
        k(  730) = (   0.4375000   0.9021098   0.1885251), wk =   0.0013021
        k(  731) = (   0.4375000   0.9021098   0.2513667), wk =   0.0013021
        k(  732) = (   0.4375000   0.9021098   0.3142084), wk =   0.0013021
        k(  733) = (   0.4375000   0.9742786   0.0000000), wk =   0.0013021
        k(  734) = (   0.4375000   0.9742786   0.0628417), wk =   0.0013021
        k(  735) = (   0.4375000   0.9742786   0.1256834), wk =   0.0013021
        k(  736) = (   0.4375000   0.9742786   0.1885251), wk =   0.0013021
        k(  737) = (   0.4375000   0.9742786   0.2513667), wk =   0.0013021
        k(  738) = (   0.4375000   0.9742786   0.3142084), wk =   0.0013021
        k(  739) = (   0.4375000   1.0464474   0.0000000), wk =   0.0013021
        k(  740) = (   0.4375000   1.0464474   0.0628417), wk =   0.0013021
        k(  741) = (   0.4375000   1.0464474   0.1256834), wk =   0.0013021
        k(  742) = (   0.4375000   1.0464474   0.1885251), wk =   0.0013021
        k(  743) = (   0.4375000   1.0464474   0.2513667), wk =   0.0013021
        k(  744) = (   0.4375000   1.0464474   0.3142084), wk =   0.0013021
        k(  745) = (   0.4375000   1.1186161   0.0000000), wk =   0.0013021
        k(  746) = (   0.4375000   1.1186161   0.0628417), wk =   0.0013021
        k(  747) = (   0.4375000   1.1186161   0.1256834), wk =   0.0013021
        k(  748) = (   0.4375000   1.1186161   0.1885251), wk =   0.0013021
        k(  749) = (   0.4375000   1.1186161   0.2513667), wk =   0.0013021
        k(  750) = (   0.4375000   1.1186161   0.3142084), wk =   0.0013021
        k(  751) = (   0.4375000   1.1907849   0.0000000), wk =   0.0013021
        k(  752) = (   0.4375000   1.1907849   0.0628417), wk =   0.0013021
        k(  753) = (   0.4375000   1.1907849   0.1256834), wk =   0.0013021
        k(  754) = (   0.4375000   1.1907849   0.1885251), wk =   0.0013021
        k(  755) = (   0.4375000   1.1907849   0.2513667), wk =   0.0013021
        k(  756) = (   0.4375000   1.1907849   0.3142084), wk =   0.0013021
        k(  757) = (   0.4375000   1.2629537   0.0000000), wk =   0.0013021
        k(  758) = (   0.4375000   1.2629537   0.0628417), wk =   0.0013021
        k(  759) = (   0.4375000   1.2629537   0.1256834), wk =   0.0013021
        k(  760) = (   0.4375000   1.2629537   0.1885251), wk =   0.0013021
        k(  761) = (   0.4375000   1.2629537   0.2513667), wk =   0.0013021
        k(  762) = (   0.4375000   1.2629537   0.3142084), wk =   0.0013021
        k(  763) = (   0.4375000   1.3351225   0.0000000), wk =   0.0013021
        k(  764) = (   0.4375000   1.3351225   0.0628417), wk =   0.0013021
        k(  765) = (   0.4375000   1.3351225   0.1256834), wk =   0.0013021
        k(  766) = (   0.4375000   1.3351225   0.1885251), wk =   0.0013021
        k(  767) = (   0.4375000   1.3351225   0.2513667), wk =   0.0013021
        k(  768) = (   0.4375000   1.3351225   0.3142084), wk =   0.0013021
        k(  769) = (   0.5000000   0.2886751   0.0000000), wk =   0.0013021
        k(  770) = (   0.5000000   0.2886751   0.0628417), wk =   0.0013021
        k(  771) = (   0.5000000   0.2886751   0.1256834), wk =   0.0013021
        k(  772) = (   0.5000000   0.2886751   0.1885251), wk =   0.0013021
        k(  773) = (   0.5000000   0.2886751   0.2513667), wk =   0.0013021
        k(  774) = (   0.5000000   0.2886751   0.3142084), wk =   0.0013021
        k(  775) = (   0.5000000   0.3608439   0.0000000), wk =   0.0013021
        k(  776) = (   0.5000000   0.3608439   0.0628417), wk =   0.0013021
        k(  777) = (   0.5000000   0.3608439   0.1256834), wk =   0.0013021
        k(  778) = (   0.5000000   0.3608439   0.1885251), wk =   0.0013021
        k(  779) = (   0.5000000   0.3608439   0.2513667), wk =   0.0013021
        k(  780) = (   0.5000000   0.3608439   0.3142084), wk =   0.0013021
        k(  781) = (   0.5000000   0.4330127   0.0000000), wk =   0.0013021
        k(  782) = (   0.5000000   0.4330127   0.0628417), wk =   0.0013021
        k(  783) = (   0.5000000   0.4330127   0.1256834), wk =   0.0013021
        k(  784) = (   0.5000000   0.4330127   0.1885251), wk =   0.0013021
        k(  785) = (   0.5000000   0.4330127   0.2513667), wk =   0.0013021
        k(  786) = (   0.5000000   0.4330127   0.3142084), wk =   0.0013021
        k(  787) = (   0.5000000   0.5051815   0.0000000), wk =   0.0013021
        k(  788) = (   0.5000000   0.5051815   0.0628417), wk =   0.0013021
        k(  789) = (   0.5000000   0.5051815   0.1256834), wk =   0.0013021
        k(  790) = (   0.5000000   0.5051815   0.1885251), wk =   0.0013021
        k(  791) = (   0.5000000   0.5051815   0.2513667), wk =   0.0013021
        k(  792) = (   0.5000000   0.5051815   0.3142084), wk =   0.0013021
        k(  793) = (   0.5000000   0.5773503   0.0000000), wk =   0.0013021
        k(  794) = (   0.5000000   0.5773503   0.0628417), wk =   0.0013021
        k(  795) = (   0.5000000   0.5773503   0.1256834), wk =   0.0013021
        k(  796) = (   0.5000000   0.5773503   0.1885251), wk =   0.0013021
        k(  797) = (   0.5000000   0.5773503   0.2513667), wk =   0.0013021
        k(  798) = (   0.5000000   0.5773503   0.3142084), wk =   0.0013021
        k(  799) = (   0.5000000   0.6495191   0.0000000), wk =   0.0013021
        k(  800) = (   0.5000000   0.6495191   0.0628417), wk =   0.0013021
        k(  801) = (   0.5000000   0.6495191   0.1256834), wk =   0.0013021
        k(  802) = (   0.5000000   0.6495191   0.1885251), wk =   0.0013021
        k(  803) = (   0.5000000   0.6495191   0.2513667), wk =   0.0013021
        k(  804) = (   0.5000000   0.6495191   0.3142084), wk =   0.0013021
        k(  805) = (   0.5000000   0.7216878   0.0000000), wk =   0.0013021
        k(  806) = (   0.5000000   0.7216878   0.0628417), wk =   0.0013021
        k(  807) = (   0.5000000   0.7216878   0.1256834), wk =   0.0013021
        k(  808) = (   0.5000000   0.7216878   0.1885251), wk =   0.0013021
        k(  809) = (   0.5000000   0.7216878   0.2513667), wk =   0.0013021
        k(  810) = (   0.5000000   0.7216878   0.3142084), wk =   0.0013021
        k(  811) = (   0.5000000   0.7938566   0.0000000), wk =   0.0013021
        k(  812) = (   0.5000000   0.7938566   0.0628417), wk =   0.0013021
        k(  813) = (   0.5000000   0.7938566   0.1256834), wk =   0.0013021
        k(  814) = (   0.5000000   0.7938566   0.1885251), wk =   0.0013021
        k(  815) = (   0.5000000   0.7938566   0.2513667), wk =   0.0013021
        k(  816) = (   0.5000000   0.7938566   0.3142084), wk =   0.0013021
        k(  817) = (   0.5000000   0.8660254   0.0000000), wk =   0.0013021
        k(  818) = (   0.5000000   0.8660254   0.0628417), wk =   0.0013021
        k(  819) = (   0.5000000   0.8660254   0.1256834), wk =   0.0013021
        k(  820) = (   0.5000000   0.8660254   0.1885251), wk =   0.0013021
        k(  821) = (   0.5000000   0.8660254   0.2513667), wk =   0.0013021
        k(  822) = (   0.5000000   0.8660254   0.3142084), wk =   0.0013021
        k(  823) = (   0.5000000   0.9381942   0.0000000), wk =   0.0013021
        k(  824) = (   0.5000000   0.9381942   0.0628417), wk =   0.0013021
        k(  825) = (   0.5000000   0.9381942   0.1256834), wk =   0.0013021
        k(  826) = (   0.5000000   0.9381942   0.1885251), wk =   0.0013021
        k(  827) = (   0.5000000   0.9381942   0.2513667), wk =   0.0013021
        k(  828) = (   0.5000000   0.9381942   0.3142084), wk =   0.0013021
        k(  829) = (   0.5000000   1.0103630   0.0000000), wk =   0.0013021
        k(  830) = (   0.5000000   1.0103630   0.0628417), wk =   0.0013021
        k(  831) = (   0.5000000   1.0103630   0.1256834), wk =   0.0013021
        k(  832) = (   0.5000000   1.0103630   0.1885251), wk =   0.0013021
        k(  833) = (   0.5000000   1.0103630   0.2513667), wk =   0.0013021
        k(  834) = (   0.5000000   1.0103630   0.3142084), wk =   0.0013021
        k(  835) = (   0.5000000   1.0825318   0.0000000), wk =   0.0013021
        k(  836) = (   0.5000000   1.0825318   0.0628417), wk =   0.0013021
        k(  837) = (   0.5000000   1.0825318   0.1256834), wk =   0.0013021
        k(  838) = (   0.5000000   1.0825318   0.1885251), wk =   0.0013021
        k(  839) = (   0.5000000   1.0825318   0.2513667), wk =   0.0013021
        k(  840) = (   0.5000000   1.0825318   0.3142084), wk =   0.0013021
        k(  841) = (   0.5000000   1.1547005   0.0000000), wk =   0.0013021
        k(  842) = (   0.5000000   1.1547005   0.0628417), wk =   0.0013021
        k(  843) = (   0.5000000   1.1547005   0.1256834), wk =   0.0013021
        k(  844) = (   0.5000000   1.1547005   0.1885251), wk =   0.0013021
        k(  845) = (   0.5000000   1.1547005   0.2513667), wk =   0.0013021
        k(  846) = (   0.5000000   1.1547005   0.3142084), wk =   0.0013021
        k(  847) = (   0.5000000   1.2268693   0.0000000), wk =   0.0013021
        k(  848) = (   0.5000000   1.2268693   0.0628417), wk =   0.0013021
        k(  849) = (   0.5000000   1.2268693   0.1256834), wk =   0.0013021
        k(  850) = (   0.5000000   1.2268693   0.1885251), wk =   0.0013021
        k(  851) = (   0.5000000   1.2268693   0.2513667), wk =   0.0013021
        k(  852) = (   0.5000000   1.2268693   0.3142084), wk =   0.0013021
        k(  853) = (   0.5000000   1.2990381   0.0000000), wk =   0.0013021
        k(  854) = (   0.5000000   1.2990381   0.0628417), wk =   0.0013021
        k(  855) = (   0.5000000   1.2990381   0.1256834), wk =   0.0013021
        k(  856) = (   0.5000000   1.2990381   0.1885251), wk =   0.0013021
        k(  857) = (   0.5000000   1.2990381   0.2513667), wk =   0.0013021
        k(  858) = (   0.5000000   1.2990381   0.3142084), wk =   0.0013021
        k(  859) = (   0.5000000   1.3712069   0.0000000), wk =   0.0013021
        k(  860) = (   0.5000000   1.3712069   0.0628417), wk =   0.0013021
        k(  861) = (   0.5000000   1.3712069   0.1256834), wk =   0.0013021
        k(  862) = (   0.5000000   1.3712069   0.1885251), wk =   0.0013021
        k(  863) = (   0.5000000   1.3712069   0.2513667), wk =   0.0013021
        k(  864) = (   0.5000000   1.3712069   0.3142084), wk =   0.0013021
        k(  865) = (   0.5625000   0.3247595   0.0000000), wk =   0.0013021
        k(  866) = (   0.5625000   0.3247595   0.0628417), wk =   0.0013021
        k(  867) = (   0.5625000   0.3247595   0.1256834), wk =   0.0013021
        k(  868) = (   0.5625000   0.3247595   0.1885251), wk =   0.0013021
        k(  869) = (   0.5625000   0.3247595   0.2513667), wk =   0.0013021
        k(  870) = (   0.5625000   0.3247595   0.3142084), wk =   0.0013021
        k(  871) = (   0.5625000   0.3969283   0.0000000), wk =   0.0013021
        k(  872) = (   0.5625000   0.3969283   0.0628417), wk =   0.0013021
        k(  873) = (   0.5625000   0.3969283   0.1256834), wk =   0.0013021
        k(  874) = (   0.5625000   0.3969283   0.1885251), wk =   0.0013021
        k(  875) = (   0.5625000   0.3969283   0.2513667), wk =   0.0013021
        k(  876) = (   0.5625000   0.3969283   0.3142084), wk =   0.0013021
        k(  877) = (   0.5625000   0.4690971   0.0000000), wk =   0.0013021
        k(  878) = (   0.5625000   0.4690971   0.0628417), wk =   0.0013021
        k(  879) = (   0.5625000   0.4690971   0.1256834), wk =   0.0013021
        k(  880) = (   0.5625000   0.4690971   0.1885251), wk =   0.0013021
        k(  881) = (   0.5625000   0.4690971   0.2513667), wk =   0.0013021
        k(  882) = (   0.5625000   0.4690971   0.3142084), wk =   0.0013021
        k(  883) = (   0.5625000   0.5412659   0.0000000), wk =   0.0013021
        k(  884) = (   0.5625000   0.5412659   0.0628417), wk =   0.0013021
        k(  885) = (   0.5625000   0.5412659   0.1256834), wk =   0.0013021
        k(  886) = (   0.5625000   0.5412659   0.1885251), wk =   0.0013021
        k(  887) = (   0.5625000   0.5412659   0.2513667), wk =   0.0013021
        k(  888) = (   0.5625000   0.5412659   0.3142084), wk =   0.0013021
        k(  889) = (   0.5625000   0.6134347   0.0000000), wk =   0.0013021
        k(  890) = (   0.5625000   0.6134347   0.0628417), wk =   0.0013021
        k(  891) = (   0.5625000   0.6134347   0.1256834), wk =   0.0013021
        k(  892) = (   0.5625000   0.6134347   0.1885251), wk =   0.0013021
        k(  893) = (   0.5625000   0.6134347   0.2513667), wk =   0.0013021
        k(  894) = (   0.5625000   0.6134347   0.3142084), wk =   0.0013021
        k(  895) = (   0.5625000   0.6856034   0.0000000), wk =   0.0013021
        k(  896) = (   0.5625000   0.6856034   0.0628417), wk =   0.0013021
        k(  897) = (   0.5625000   0.6856034   0.1256834), wk =   0.0013021
        k(  898) = (   0.5625000   0.6856034   0.1885251), wk =   0.0013021
        k(  899) = (   0.5625000   0.6856034   0.2513667), wk =   0.0013021
        k(  900) = (   0.5625000   0.6856034   0.3142084), wk =   0.0013021
        k(  901) = (   0.5625000   0.7577722   0.0000000), wk =   0.0013021
        k(  902) = (   0.5625000   0.7577722   0.0628417), wk =   0.0013021
        k(  903) = (   0.5625000   0.7577722   0.1256834), wk =   0.0013021
        k(  904) = (   0.5625000   0.7577722   0.1885251), wk =   0.0013021
        k(  905) = (   0.5625000   0.7577722   0.2513667), wk =   0.0013021
        k(  906) = (   0.5625000   0.7577722   0.3142084), wk =   0.0013021
        k(  907) = (   0.5625000   0.8299410   0.0000000), wk =   0.0013021
        k(  908) = (   0.5625000   0.8299410   0.0628417), wk =   0.0013021
        k(  909) = (   0.5625000   0.8299410   0.1256834), wk =   0.0013021
        k(  910) = (   0.5625000   0.8299410   0.1885251), wk =   0.0013021
        k(  911) = (   0.5625000   0.8299410   0.2513667), wk =   0.0013021
        k(  912) = (   0.5625000   0.8299410   0.3142084), wk =   0.0013021
        k(  913) = (   0.5625000   0.9021098   0.0000000), wk =   0.0013021
        k(  914) = (   0.5625000   0.9021098   0.0628417), wk =   0.0013021
        k(  915) = (   0.5625000   0.9021098   0.1256834), wk =   0.0013021
        k(  916) = (   0.5625000   0.9021098   0.1885251), wk =   0.0013021
        k(  917) = (   0.5625000   0.9021098   0.2513667), wk =   0.0013021
        k(  918) = (   0.5625000   0.9021098   0.3142084), wk =   0.0013021
        k(  919) = (   0.5625000   0.9742786   0.0000000), wk =   0.0013021
        k(  920) = (   0.5625000   0.9742786   0.0628417), wk =   0.0013021
        k(  921) = (   0.5625000   0.9742786   0.1256834), wk =   0.0013021
        k(  922) = (   0.5625000   0.9742786   0.1885251), wk =   0.0013021
        k(  923) = (   0.5625000   0.9742786   0.2513667), wk =   0.0013021
        k(  924) = (   0.5625000   0.9742786   0.3142084), wk =   0.0013021
        k(  925) = (   0.5625000   1.0464474   0.0000000), wk =   0.0013021
        k(  926) = (   0.5625000   1.0464474   0.0628417), wk =   0.0013021
        k(  927) = (   0.5625000   1.0464474   0.1256834), wk =   0.0013021
        k(  928) = (   0.5625000   1.0464474   0.1885251), wk =   0.0013021
        k(  929) = (   0.5625000   1.0464474   0.2513667), wk =   0.0013021
        k(  930) = (   0.5625000   1.0464474   0.3142084), wk =   0.0013021
        k(  931) = (   0.5625000   1.1186161   0.0000000), wk =   0.0013021
        k(  932) = (   0.5625000   1.1186161   0.0628417), wk =   0.0013021
        k(  933) = (   0.5625000   1.1186161   0.1256834), wk =   0.0013021
        k(  934) = (   0.5625000   1.1186161   0.1885251), wk =   0.0013021
        k(  935) = (   0.5625000   1.1186161   0.2513667), wk =   0.0013021
        k(  936) = (   0.5625000   1.1186161   0.3142084), wk =   0.0013021
        k(  937) = (   0.5625000   1.1907849   0.0000000), wk =   0.0013021
        k(  938) = (   0.5625000   1.1907849   0.0628417), wk =   0.0013021
        k(  939) = (   0.5625000   1.1907849   0.1256834), wk =   0.0013021
        k(  940) = (   0.5625000   1.1907849   0.1885251), wk =   0.0013021
        k(  941) = (   0.5625000   1.1907849   0.2513667), wk =   0.0013021
        k(  942) = (   0.5625000   1.1907849   0.3142084), wk =   0.0013021
        k(  943) = (   0.5625000   1.2629537   0.0000000), wk =   0.0013021
        k(  944) = (   0.5625000   1.2629537   0.0628417), wk =   0.0013021
        k(  945) = (   0.5625000   1.2629537   0.1256834), wk =   0.0013021
        k(  946) = (   0.5625000   1.2629537   0.1885251), wk =   0.0013021
        k(  947) = (   0.5625000   1.2629537   0.2513667), wk =   0.0013021
        k(  948) = (   0.5625000   1.2629537   0.3142084), wk =   0.0013021
        k(  949) = (   0.5625000   1.3351225   0.0000000), wk =   0.0013021
        k(  950) = (   0.5625000   1.3351225   0.0628417), wk =   0.0013021
        k(  951) = (   0.5625000   1.3351225   0.1256834), wk =   0.0013021
        k(  952) = (   0.5625000   1.3351225   0.1885251), wk =   0.0013021
        k(  953) = (   0.5625000   1.3351225   0.2513667), wk =   0.0013021
        k(  954) = (   0.5625000   1.3351225   0.3142084), wk =   0.0013021
        k(  955) = (   0.5625000   1.4072913   0.0000000), wk =   0.0013021
        k(  956) = (   0.5625000   1.4072913   0.0628417), wk =   0.0013021
        k(  957) = (   0.5625000   1.4072913   0.1256834), wk =   0.0013021
        k(  958) = (   0.5625000   1.4072913   0.1885251), wk =   0.0013021
        k(  959) = (   0.5625000   1.4072913   0.2513667), wk =   0.0013021
        k(  960) = (   0.5625000   1.4072913   0.3142084), wk =   0.0013021
        k(  961) = (   0.6250000   0.3608439   0.0000000), wk =   0.0013021
        k(  962) = (   0.6250000   0.3608439   0.0628417), wk =   0.0013021
        k(  963) = (   0.6250000   0.3608439   0.1256834), wk =   0.0013021
        k(  964) = (   0.6250000   0.3608439   0.1885251), wk =   0.0013021
        k(  965) = (   0.6250000   0.3608439   0.2513667), wk =   0.0013021
        k(  966) = (   0.6250000   0.3608439   0.3142084), wk =   0.0013021
        k(  967) = (   0.6250000   0.4330127   0.0000000), wk =   0.0013021
        k(  968) = (   0.6250000   0.4330127   0.0628417), wk =   0.0013021
        k(  969) = (   0.6250000   0.4330127   0.1256834), wk =   0.0013021
        k(  970) = (   0.6250000   0.4330127   0.1885251), wk =   0.0013021
        k(  971) = (   0.6250000   0.4330127   0.2513667), wk =   0.0013021
        k(  972) = (   0.6250000   0.4330127   0.3142084), wk =   0.0013021
        k(  973) = (   0.6250000   0.5051815   0.0000000), wk =   0.0013021
        k(  974) = (   0.6250000   0.5051815   0.0628417), wk =   0.0013021
        k(  975) = (   0.6250000   0.5051815   0.1256834), wk =   0.0013021
        k(  976) = (   0.6250000   0.5051815   0.1885251), wk =   0.0013021
        k(  977) = (   0.6250000   0.5051815   0.2513667), wk =   0.0013021
        k(  978) = (   0.6250000   0.5051815   0.3142084), wk =   0.0013021
[...]
     0.0000   0.0000   0.0000   0.0000   0.0000   0.0000   0.0000   0.0000
     0.0000   0.0000   0.0000   0.0000   0.0000   0.0000   0.0000   0.0000
     0.0000   0.0000   0.0000   0.0000   0.0000   0.0000   0.0000   0.0000

          k = 0.9375 1.3351 0.3142 (  2387 PWs)   bands (ev):

   -10.8387 -10.6583  -2.2949  -2.2242   0.8944   0.9500   1.6998   3.1618
    11.4624  12.1794  13.7320  15.4470  16.6720  19.2167  20.9392  22.9788
    23.9849  24.1658  25.1057  25.5497  27.4447  28.4850  30.9190  32.0721
    33.4119  34.5498  35.3332  35.6415  39.0758  39.5669  41.6025  42.4066

     occupation numbers 
     1.0000   1.0000   1.0000   1.0000   1.0000   1.0000   1.0000   1.0000
     0.0000   0.0000   0.0000   0.0000   0.0000   0.0000   0.0000   0.0000
     0.0000   0.0000   0.0000   0.0000   0.0000   0.0000   0.0000   0.0000
     0.0000   0.0000   0.0000   0.0000   0.0000   0.0000   0.0000   0.0000

          k = 0.9375 1.4073 0.0000 (  2382 PWs)   bands (ev):

   -11.4873 -11.2443  -1.0153  -0.9489   0.6770   1.3421   1.4020   2.5478
    12.4856  12.9739  13.4471  15.6728  16.5784  19.8876  20.0323  21.4351
    22.3943  23.8996  25.0380  26.9422  27.5764  29.2001  30.4522  32.8952
    33.5539  34.6597  35.4382  35.5648  39.7351  39.7947  42.5054  42.7007

     occupation numbers 
     1.0000   1.0000   1.0000   1.0000   1.0000   1.0000   1.0000   1.0000
     0.0000   0.0000   0.0000   0.0000   0.0000   0.0000   0.0000   0.0000
     0.0000   0.0000   0.0000   0.0000   0.0000   0.0000   0.0000   0.0000
     0.0000   0.0000   0.0000   0.0000   0.0000   0.0000   0.0000   0.0000

          k = 0.9375 1.4073 0.0628 (  2380 PWs)   bands (ev):

   -11.4718 -11.2614  -1.0140  -0.9554   0.7866   1.3464   1.3979   2.3996
    12.4675  13.0784  13.6269  15.6639  16.5803  18.9747  20.6383  21.4142
    22.5181  23.8328  24.8916  26.4536  28.1148  29.3294  30.8368  32.4748
    33.8132  34.7033  35.3424  36.0578  39.2095  39.8797  41.7438  43.3586

     occupation numbers 
     1.0000   1.0000   1.0000   1.0000   1.0000   1.0000   1.0000   1.0000
     0.0000   0.0000   0.0000   0.0000   0.0000   0.0000   0.0000   0.0000
     0.0000   0.0000   0.0000   0.0000   0.0000   0.0000   0.0000   0.0000
     0.0000   0.0000   0.0000   0.0000   0.0000   0.0000   0.0000   0.0000

          k = 0.9375 1.4073 0.1257 (  2383 PWs)   bands (ev):

   -11.4289 -11.3075  -1.0072  -0.9721   1.0907   1.3589   1.3873   2.0189
    12.5516  12.9674  14.3572  15.5819  16.6298  17.8311  21.0256  21.3496
    22.8566  23.6203  24.8243  25.7198  28.7966  29.5466  31.5061  32.0803
    34.1746  34.6303  35.4348  37.2292  37.9249  40.1551  40.9124  42.0649

     occupation numbers 
     1.0000   1.0000   1.0000   1.0000   1.0000   1.0000   1.0000   1.0000
     0.0000   0.0000   0.0000   0.0000   0.0000   0.0000   0.0000   0.0000
     0.0000   0.0000   0.0000   0.0000   0.0000   0.0000   0.0000   0.0000
     0.0000   0.0000   0.0000   0.0000   0.0000   0.0000   0.0000   0.0000

          k = 0.9375 1.4073 0.1885 (  2386 PWs)   bands (ev):

   -11.3702 -11.3677  -0.9924  -0.9916   1.3612   1.3620   1.5427   1.5535
    12.7398  12.7527  15.1863  15.1879  16.9361  16.9476  21.2284  21.2363
    23.2694  23.2779  25.1025  25.1235  29.3258  29.3335  31.9040  31.9287
    34.4187  34.4263  36.3643  36.4204  38.8711  38.8811  41.1967  41.2157

     occupation numbers 
     1.0000   1.0000   1.0000   1.0000   1.0000   1.0000   1.0000   1.0000
     0.0000   0.0000   0.0000   0.0000   0.0000   0.0000   0.0000   0.0000
     0.0000   0.0000   0.0000   0.0000   0.0000   0.0000   0.0000   0.0000
     0.0000   0.0000   0.0000   0.0000   0.0000   0.0000   0.0000   0.0000

          k = 0.9375 1.4073 0.2514 (  2383 PWs)   bands (ev):

   -11.4289 -11.3075  -1.0071  -0.9722   1.0906   1.3592   1.3870   2.0189
    12.5546  12.9642  14.3571  15.5817  16.6300  17.8308  21.0270  21.3487
    22.8586  23.6163  24.8421  25.6980  28.8092  29.5449  31.4822  32.1014
    34.1753  34.6223  35.4417  37.2291  37.9172  40.1532  40.9324  42.0656

     occupation numbers 
     1.0000   1.0000   1.0000   1.0000   1.0000   1.0000   1.0000   1.0000
     0.0000   0.0000   0.0000   0.0000   0.0000   0.0000   0.0000   0.0000
     0.0000   0.0000   0.0000   0.0000   0.0000   0.0000   0.0000   0.0000
     0.0000   0.0000   0.0000   0.0000   0.0000   0.0000   0.0000   0.0000

          k = 0.9375 1.4073 0.3142 (  2380 PWs)   bands (ev):

   -11.4718 -11.2614  -1.0140  -0.9555   0.7866   1.3464   1.3978   2.3996
    12.4703  13.0742  13.6281  15.6637  16.5803  18.9740  20.6399  21.4137
    22.5190  23.8302  24.9054  26.4260  28.1357  29.3317  30.8214  32.4868
    33.8085  34.7001  35.3452  36.0590  39.1978  39.8853  41.7616  43.3602

     occupation numbers 
     1.0000   1.0000   1.0000   1.0000   1.0000   1.0000   1.0000   1.0000
     0.0000   0.0000   0.0000   0.0000   0.0000   0.0000   0.0000   0.0000
     0.0000   0.0000   0.0000   0.0000   0.0000   0.0000   0.0000   0.0000
     0.0000   0.0000   0.0000   0.0000   0.0000   0.0000   0.0000   0.0000

          k = 0.9375 1.4795 0.0000 (  2375 PWs)   bands (ev):

   -12.0481 -11.7810  -0.1113   0.3260   0.3730   1.8756   1.8916   1.9455
    11.6814  14.0915  14.7504  15.9349  16.5706  18.8411  19.8455  20.3033
    20.7796  22.5700  26.3043  27.7665  28.6734  30.3459  30.6084  32.8995
    34.1145  34.3643  35.5836  35.9477  38.6581  40.6609  41.5653  44.4679

     occupation numbers 
     1.0000   1.0000   1.0000   1.0000   1.0000   1.0000   1.0000   1.0000
     0.0000   0.0000   0.0000   0.0000   0.0000   0.0000   0.0000   0.0000
     0.0000   0.0000   0.0000   0.0000   0.0000   0.0000   0.0000   0.0000
     0.0000   0.0000   0.0000   0.0000   0.0000   0.0000   0.0000   0.0000

          k = 0.9375 1.4795 0.0628 (  2383 PWs)   bands (ev):

   -12.0312 -11.7999  -0.0154   0.3427   0.3674   1.7151   1.8966   1.9429
    11.9214  13.9983  14.8515  15.9370  16.5653  18.4384  19.8379  19.9718
    21.2740  22.5300  26.1044  27.7930  28.8757  30.1683  31.2306  32.8984
    33.5660  34.4938  35.9101  36.4365  38.4312  40.5176  41.3771  43.9831

     occupation numbers 
     1.0000   1.0000   1.0000   1.0000   1.0000   1.0000   1.0000   1.0000
     0.0000   0.0000   0.0000   0.0000   0.0000   0.0000   0.0000   0.0000
     0.0000   0.0000   0.0000   0.0000   0.0000   0.0000   0.0000   0.0000
     0.0000   0.0000   0.0000   0.0000   0.0000   0.0000   0.0000   0.0000

          k = 0.9375 1.4795 0.1257 (  2384 PWs)   bands (ev):

   -11.9842 -11.8507   0.1963   0.3392   0.4614   1.3149   1.9064   1.9332
    12.5181  13.7012  15.1791  15.9028  16.5792  17.5075  19.8164  19.8292
    21.8054  22.4037  26.0777  27.1494  29.6562  30.3258  31.9144  32.6415
    33.4837  34.4525  36.1957  37.4635  38.1529  40.0351  40.9399  42.2637

     occupation numbers 
     1.0000   1.0000   1.0000   1.0000   1.0000   1.0000   1.0000   1.0000
     0.0000   0.0000   0.0000   0.0000   0.0000   0.0000   0.0000   0.0000
     0.0000   0.0000   0.0000   0.0000   0.0000   0.0000   0.0000   0.0000
     0.0000   0.0000   0.0000   0.0000   0.0000   0.0000   0.0000   0.0000

          k = 0.9375 1.4795 0.1885 (  2386 PWs)   bands (ev):

   -11.9197 -11.9170   0.2987   0.2994   0.8280   0.8386   1.9194   1.9201
    13.1786  13.1971  15.6542  15.6555  16.7763  16.7817  19.8037  19.8092
    22.1654  22.1802  26.4565  26.4796  30.2009  30.2121  32.3359  32.3528
    34.0244  34.0417  36.7967  36.8136  39.3784  39.3830  40.8015  40.8208

     occupation numbers 
     1.0000   1.0000   1.0000   1.0000   1.0000   1.0000   1.0000   1.0000
     0.0000   0.0000   0.0000   0.0000   0.0000   0.0000   0.0000   0.0000
     0.0000   0.0000   0.0000   0.0000   0.0000   0.0000   0.0000   0.0000
     0.0000   0.0000   0.0000   0.0000   0.0000   0.0000   0.0000   0.0000

          k = 0.9375 1.4795 0.2514 (  2384 PWs)   bands (ev):

   -11.9841 -11.8507   0.1962   0.3396   0.4610   1.3150   1.9063   1.9333
    12.5182  13.7017  15.1781  15.9027  16.5788  17.5082  19.8107  19.8349
    21.8062  22.4028  26.0905  27.1293  29.6730  30.3208  31.9009  32.6574
    33.4751  34.4488  36.2032  37.4619  38.1529  40.0419  40.9379  42.2602

     occupation numbers 
     1.0000   1.0000   1.0000   1.0000   1.0000   1.0000   1.0000   1.0000
     0.0000   0.0000   0.0000   0.0000   0.0000   0.0000   0.0000   0.0000
     0.0000   0.0000   0.0000   0.0000   0.0000   0.0000   0.0000   0.0000
     0.0000   0.0000   0.0000   0.0000   0.0000   0.0000   0.0000   0.0000

          k = 0.9375 1.4795 0.3142 (  2383 PWs)   bands (ev):

   -12.0312 -11.7999  -0.0153   0.3433   0.3668   1.7151   1.8965   1.9429
    11.9216  13.9990  14.8505  15.9369  16.5652  18.4387  19.8364  19.9732
    21.2745  22.5294  26.1157  27.7580  28.9050  30.1712  31.2191  32.9042
    33.5625  34.4911  35.9162  36.4319  38.4360  40.5198  41.3757  43.9824

     occupation numbers 
     1.0000   1.0000   1.0000   1.0000   1.0000   1.0000   1.0000   1.0000
     0.0000   0.0000   0.0000   0.0000   0.0000   0.0000   0.0000   0.0000
     0.0000   0.0000   0.0000   0.0000   0.0000   0.0000   0.0000   0.0000
     0.0000   0.0000   0.0000   0.0000   0.0000   0.0000   0.0000   0.0000

          k = 0.9375 1.5516 0.0000 (  2378 PWs)   bands (ev):

   -12.4916 -12.2078  -0.7241   1.3387   1.5748   1.6048   2.4764   2.5226
    11.0169  14.7074  16.0692  16.1951  16.5377  17.8075  18.4731  19.3026
    20.6993  21.3833  27.8073  28.0798  29.9388  30.9101  31.7614  32.1723
    34.8149  35.1966  35.9005  36.2198  37.2223  40.6242  41.6229  44.0112

     occupation numbers 
     1.0000   1.0000   1.0000   1.0000   1.0000   1.0000   1.0000   1.0000
     0.0000   0.0000   0.0000   0.0000   0.0000   0.0000   0.0000   0.0000
     0.0000   0.0000   0.0000   0.0000   0.0000   0.0000   0.0000   0.0000
     0.0000   0.0000   0.0000   0.0000   0.0000   0.0000   0.0000   0.0000

          k = 0.9375 1.5516 0.0628 (  2382 PWs)   bands (ev):

   -12.4737 -12.2280  -0.6111   1.1520   1.5797   1.6172   2.4796   2.5195
    11.3065  14.5175  16.1223  16.2136  16.5385  17.6949  18.4716  19.0070
    20.8565  21.3667  27.4994  28.8998  29.7304  30.8548  31.9090  32.2151
    34.1872  35.0607  36.0442  37.1489  37.3895  40.6093  41.4410  43.0778

     occupation numbers 
     1.0000   1.0000   1.0000   1.0000   1.0000   1.0000   1.0000   1.0000
     0.0000   0.0000   0.0000   0.0000   0.0000   0.0000   0.0000   0.0000
     0.0000   0.0000   0.0000   0.0000   0.0000   0.0000   0.0000   0.0000
     0.0000   0.0000   0.0000   0.0000   0.0000   0.0000   0.0000   0.0000

          k = 0.9375 1.5516 0.1257 (  2378 PWs)   bands (ev):

   -12.4238 -12.2821  -0.2901   0.7107   1.5916   1.6183   2.4882   2.5112
    12.0690  13.9433  16.2431  16.2581  16.5861  17.3129  18.4740  18.6422
    21.0730  21.3152  27.6237  28.8353  30.3472  30.9707  32.0408  32.4248
    33.3801  34.4558  36.7151  37.9937  38.5136  40.1813  40.6556  42.2156

     occupation numbers 
     1.0000   1.0000   1.0000   1.0000   1.0000   1.0000   1.0000   1.0000
     0.0000   0.0000   0.0000   0.0000   0.0000   0.0000   0.0000   0.0000
     0.0000   0.0000   0.0000   0.0000   0.0000   0.0000   0.0000   0.0000
     0.0000   0.0000   0.0000   0.0000   0.0000   0.0000   0.0000   0.0000

          k = 0.9375 1.5516 0.1885 (  2378 PWs)   bands (ev):

   -12.3555 -12.3526   0.1769   0.1890   1.6063   1.6068   2.4994   2.5000
    13.0392  13.0599  16.2903  16.2909  16.8473  16.8503  18.5047  18.5078
    21.2123  21.2313  28.1171  28.1495  30.9990  31.0154  32.3249  32.3336
    33.5108  33.5369  37.7981  37.8032  39.2991  39.3056  41.3091  41.3148

     occupation numbers 
     1.0000   1.0000   1.0000   1.0000   1.0000   1.0000   1.0000   1.0000
     0.0000   0.0000   0.0000   0.0000   0.0000   0.0000   0.0000   0.0000
     0.0000   0.0000   0.0000   0.0000   0.0000   0.0000   0.0000   0.0000
     0.0000   0.0000   0.0000   0.0000   0.0000   0.0000   0.0000   0.0000

          k = 0.9375 1.5516 0.2514 (  2378 PWs)   bands (ev):

   -12.4238 -12.2821  -0.2901   0.7106   1.5915   1.6183   2.4882   2.5112
    12.0690  13.9435  16.2428  16.2579  16.5856  17.3137  18.4736  18.6425
    21.0734  21.3148  27.6321  28.8188  30.3607  30.9647  32.0441  32.4194
    33.3895  34.4462  36.7142  38.0018  38.5149  40.1746  40.6600  42.2178

     occupation numbers 
     1.0000   1.0000   1.0000   1.0000   1.0000   1.0000   1.0000   1.0000
     0.0000   0.0000   0.0000   0.0000   0.0000   0.0000   0.0000   0.0000
     0.0000   0.0000   0.0000   0.0000   0.0000   0.0000   0.0000   0.0000
     0.0000   0.0000   0.0000   0.0000   0.0000   0.0000   0.0000   0.0000

          k = 0.9375 1.5516 0.3142 (  2382 PWs)   bands (ev):

   -12.4737 -12.2280  -0.6111   1.1520   1.5797   1.6172   2.4796   2.5195
    11.3065  14.5178  16.1218  16.2135  16.5384  17.6953  18.4714  19.0071
    20.8567  21.3664  27.5080  28.8761  29.7464  30.8534  31.9128  32.2129
    34.1898  35.0520  36.0458  37.1489  37.3950  40.6078  41.4464  43.0784

     occupation numbers 
     1.0000   1.0000   1.0000   1.0000   1.0000   1.0000   1.0000   1.0000
     0.0000   0.0000   0.0000   0.0000   0.0000   0.0000   0.0000   0.0000
     0.0000   0.0000   0.0000   0.0000   0.0000   0.0000   0.0000   0.0000
     0.0000   0.0000   0.0000   0.0000   0.0000   0.0000   0.0000   0.0000

          k = 0.9375 1.6238 0.0000 (  2383 PWs)   bands (ev):

   -12.7962 -12.5017  -1.1410   0.9683   2.5615   2.5874   2.9921   3.0319
    10.5293  15.0165  16.3465  16.4566  17.0848  17.1429  17.4622  18.0937
    20.4779  21.1272  27.4918  30.2297  30.6035  31.1853  31.4726  33.2126
    35.1658  36.3214  36.5039  36.6874  37.4491  38.9594  42.3578  42.4399

     occupation numbers 
     1.0000   1.0000   1.0000   1.0000   1.0000   1.0000   1.0000   1.0000
     0.0000   0.0000   0.0000   0.0000   0.0000   0.0000   0.0000   0.0000
     0.0000   0.0000   0.0000   0.0000   0.0000   0.0000   0.0000   0.0000
     0.0000   0.0000   0.0000   0.0000   0.0000   0.0000   0.0000   0.0000

          k = 0.9375 1.6238 0.0628 (  2388 PWs)   bands (ev):

   -12.7776 -12.5226  -1.0248   0.7881   2.5643   2.5886   2.9948   3.0292
    10.8397  14.7147  16.3578  16.4614  17.1036  17.1499  17.4691  18.0009
    20.4899  20.9989  27.8907  30.4887  30.5156  31.2247  31.4756  33.0338
    35.2485  35.5031  35.5462  38.0340  38.3608  39.0879  41.5643  41.8712

     occupation numbers 
     1.0000   1.0000   1.0000   1.0000   1.0000   1.0000   1.0000   1.0000
     0.0000   0.0000   0.0000   0.0000   0.0000   0.0000   0.0000   0.0000
     0.0000   0.0000   0.0000   0.0000   0.0000   0.0000   0.0000   0.0000
     0.0000   0.0000   0.0000   0.0000   0.0000   0.0000   0.0000   0.0000

          k = 0.9375 1.6238 0.1257 (  2391 PWs)   bands (ev):

   -12.7260 -12.5789  -0.6946   0.3375   2.5718   2.5874   3.0020   3.0218
    11.6684  13.8934  16.3879  16.4548  17.1442  17.1645  17.5063  17.7990
    20.5309  20.7767  28.7351  30.1910  31.0771  31.2625  31.6880  32.8500
    34.2657  34.4019  36.2478  39.0071  39.3736  39.5282  40.8340  40.9916

     occupation numbers 
     1.0000   1.0000   1.0000   1.0000   1.0000   1.0000   1.0000   1.0000
     0.0000   0.0000   0.0000   0.0000   0.0000   0.0000   0.0000   0.0000
     0.0000   0.0000   0.0000   0.0000   0.0000   0.0000   0.0000   0.0000
     0.0000   0.0000   0.0000   0.0000   0.0000   0.0000   0.0000   0.0000

          k = 0.9375 1.6238 0.1885 (  2382 PWs)   bands (ev):

   -12.6551 -12.6521  -0.2133  -0.2008   2.5807   2.5812   3.0116   3.0121
    12.7697  12.7904  16.4251  16.4264  17.1676  17.1701  17.6124  17.6147
    20.6080  20.6281  29.5416  29.5867  31.2300  31.2473  32.5872  32.6032
    33.6834  33.6923  37.5407  37.5493  39.9825  39.9830  41.1801  41.1863

     occupation numbers 
     1.0000   1.0000   1.0000   1.0000   1.0000   1.0000   1.0000   1.0000
     0.0000   0.0000   0.0000   0.0000   0.0000   0.0000   0.0000   0.0000
     0.0000   0.0000   0.0000   0.0000   0.0000   0.0000   0.0000   0.0000
     0.0000   0.0000   0.0000   0.0000   0.0000   0.0000   0.0000   0.0000

          k = 0.9375 1.6238 0.2514 (  2391 PWs)   bands (ev):

   -12.7260 -12.5789  -0.6946   0.3375   2.5718   2.5874   3.0020   3.0218
    11.6684  13.8934  16.3879  16.4548  17.1442  17.1645  17.5063  17.7990
    20.5309  20.7767  28.7351  30.1910  31.0771  31.2625  31.6880  32.8500
    34.2657  34.4019  36.2478  39.0071  39.3736  39.5282  40.8340  40.9916

     occupation numbers 
     1.0000   1.0000   1.0000   1.0000   1.0000   1.0000   1.0000   1.0000
     0.0000   0.0000   0.0000   0.0000   0.0000   0.0000   0.0000   0.0000
     0.0000   0.0000   0.0000   0.0000   0.0000   0.0000   0.0000   0.0000
     0.0000   0.0000   0.0000   0.0000   0.0000   0.0000   0.0000   0.0000

          k = 0.9375 1.6238 0.3142 (  2388 PWs)   bands (ev):

   -12.7776 -12.5226  -1.0248   0.7881   2.5643   2.5886   2.9948   3.0292
    10.8397  14.7147  16.3578  16.4614  17.1036  17.1499  17.4691  18.0009
    20.4899  20.9989  27.8907  30.4887  30.5156  31.2247  31.4756  33.0338
    35.2485  35.5031  35.5462  38.0340  38.3608  39.0879  41.5643  41.8712

     occupation numbers 
     1.0000   1.0000   1.0000   1.0000   1.0000   1.0000   1.0000   1.0000
     0.0000   0.0000   0.0000   0.0000   0.0000   0.0000   0.0000   0.0000
     0.0000   0.0000   0.0000   0.0000   0.0000   0.0000   0.0000   0.0000
     0.0000   0.0000   0.0000   0.0000   0.0000   0.0000   0.0000   0.0000

     the Fermi energy is     6.7827 ev

     Writing output data file ./hBN.save/
 
     init_run     :      0.03s CPU      0.09s WALL (       1 calls)
     electrons    :    390.08s CPU    433.62s WALL (       1 calls)

     Called by init_run:
     wfcinit      :      0.00s CPU      0.03s WALL (       1 calls)
     wfcinit:wfcr :      5.48s CPU      6.01s WALL (    1536 calls)
     potinit      :      0.00s CPU      0.02s WALL (       1 calls)
     hinit0       :      0.01s CPU      0.02s WALL (       1 calls)

     Called by electrons:
     c_bands      :    390.05s CPU    433.58s WALL (       1 calls)
     v_of_rho     :      0.00s CPU      0.01s WALL (       1 calls)
     v_h          :      0.00s CPU      0.00s WALL (       1 calls)
     v_xc         :      0.00s CPU      0.00s WALL (       1 calls)

     Called by c_bands:
     init_us_2    :      0.04s CPU      0.05s WALL (    1536 calls)
     ccgdiagg     :    367.22s CPU    405.99s WALL (    5441 calls)
     wfcrot       :     19.28s CPU     20.79s WALL (    5441 calls)

     Called by sum_band:

     Called by *cgdiagg:
     h_psi        :    279.64s CPU    308.47s WALL ( 2258570 calls)
     cdiaghg      :      1.16s CPU      1.25s WALL (    5441 calls)

     Called by h_psi:
     h_psi:calbec :     27.85s CPU     30.72s WALL ( 2258570 calls)
     vloc_psi     :    233.60s CPU    257.63s WALL ( 2258570 calls)
     add_vuspsi   :      9.43s CPU     10.65s WALL ( 2258570 calls)
     hs_1psi      :    275.24s CPU    303.94s WALL ( 2253129 calls)
     s_1psi       :     27.64s CPU     30.44s WALL ( 2253129 calls)

     General routines
     calbec       :     41.94s CPU     46.73s WALL ( 4511699 calls)
     fft          :      0.01s CPU      0.02s WALL (      12 calls)
     ffts         :      0.00s CPU      0.00s WALL (       1 calls)
     fftw         :    220.48s CPU    243.03s WALL ( 4854482 calls)
     interpolate  :      0.00s CPU      0.00s WALL (       1 calls)
     davcio       :      0.11s CPU      6.20s WALL (    3072 calls)
 
     Parallel routines
     fft_scatt_xy :     15.04s CPU     16.63s WALL ( 4854495 calls)
     fft_scatt_yz :    132.84s CPU    146.58s WALL ( 4854495 calls)
 
     PWSCF        :   7m28.04s CPU   8m33.83s WALL

 
   This run was terminated on:  13:12:56  10Jun2024            

=------------------------------------------------------------------------------=
   JOB DONE.
=------------------------------------------------------------------------------=
