
     Program PWSCF v.6.5 starts on 10Jun2024 at 13: 2:29 

     This program is part of the open-source Quantum ESPRESSO suite
     for quantum simulation of materials; please cite
         "P. Giannozzi et al., J. Phys.:Condens. Matter 21 395502 (2009);
         "P. Giannozzi et al., J. Phys.:Condens. Matter 29 465901 (2017);
          URL http://www.quantum-espresso.org", 
     in publications or presentations arising from this work. More details at
     http://www.quantum-espresso.org/quote

     Parallel version (MPI), running on    32 processors

     MPI processes distributed on     1 nodes
     R & G space division:  proc/nbgrp/npool/nimage =      32
     Waiting for input...
     Reading input from standard input
Warning: card &IONS ignored
Warning: card  / ignored
Warning: card / ignored

     Current dimensions of program PWSCF are:
     Max number of different atomic species (ntypx) = 10
     Max number of k-points (npk) =  40000
     Max angular momentum in pseudopotentials (lmaxx) =  3
               file B.pbe-mt_fhi.UPF: wavefunction(s)  4f renormalized
               file N.pbe-mt_fhi.UPF: wavefunction(s)  4f renormalized

     Subspace diagonalization in iterative solution of the eigenvalue problem:
     a serial algorithm will be used

 
     Parallelization info
     --------------------
     sticks:   dense  smooth     PW     G-vecs:    dense   smooth      PW
     Min          16      13      3                  826      591      88
     Max          17      14      4                  835      604     104
     Sum         535     433    127                26529    19063    3139
 


     bravais-lattice index     =            4
     lattice parameter (alat)  =       4.7149  a.u.
     unit-cell volume          =     240.7425 (a.u.)^3
     number of atoms/cell      =            4
     number of atomic types    =            2
     number of electrons       =        16.00
     number of Kohn-Sham states=           12
     kinetic-energy cutoff     =      70.0000  Ry
     charge density cutoff     =     350.0000  Ry
     convergence threshold     =      1.0E-12
     mixing beta               =       0.7000
     number of iterations used =            8  plain     mixing
     Exchange-correlation= PBE
                           (   1   4   3   4   0   0   0)

     celldm(1)=   4.714914  celldm(2)=   0.000000  celldm(3)=   2.652167
     celldm(4)=   0.000000  celldm(5)=   0.000000  celldm(6)=   0.000000

     crystal axes: (cart. coord. in units of alat)
               a(1) = (   1.000000   0.000000   0.000000 )  
               a(2) = (  -0.500000   0.866025   0.000000 )  
               a(3) = (   0.000000   0.000000   2.652167 )  

     reciprocal axes: (cart. coord. in units 2 pi/alat)
               b(1) = (  1.000000  0.577350  0.000000 )  
               b(2) = (  0.000000  1.154701  0.000000 )  
               b(3) = (  0.000000  0.000000  0.377050 )  


     PseudoPot. # 1 for B  read from file:
     ./B.pbe-mt_fhi.UPF
     MD5 check sum: 3f163d4852bc5bbf8d257a5964ae55b6
     Pseudo is Norm-conserving + core correction, Zval =  3.0
     Generated using FHI98PP, converted with fhi2upf.x v.5.0.2
     Using radial grid of  453 points,  3 beta functions with: 
                l(1) =   0
                l(2) =   1
                l(3) =   3

     PseudoPot. # 2 for N  read from file:
     ./N.pbe-mt_fhi.UPF
     MD5 check sum: 811917c5dca8ff3f92e6b0a65b071028
     Pseudo is Norm-conserving, Zval =  5.0
     Generated using FHI98PP, converted with fhi2upf.x v.5.0.2
     Using radial grid of  467 points,  3 beta functions with: 
                l(1) =   0
                l(2) =   1
                l(3) =   3

     atomic species   valence    mass     pseudopotential
        B              3.00    10.81100     B ( 1.00)
        N              5.00    14.00700     N ( 1.00)

     No symmetry found



   Cartesian axes

     site n.     atom                  positions (alat units)
         1           B   tau(   1) = (   0.4999932   0.8660148   0.7009376  )
         2           B   tau(   2) = (   0.4999891   0.2886564   2.0286732  )
         3           N   tau(   3) = (   0.4999935   0.2886640   0.7008959  )
         4           N   tau(   4) = (   0.4999886   0.8660071   2.0287598  )

     number of k points=   772  Gaussian smearing, width (Ry)=  0.0200

     Number of k-points >= 100: set verbosity='high' to print them.

     Dense  grid:    26529 G-vectors     FFT dimensions: (  30,  30,  75)

     Smooth grid:    19063 G-vectors     FFT dimensions: (  25,  25,  72)

     Estimated max dynamical RAM per process >      12.01 MB

     Estimated total dynamical RAM >     384.39 MB

     Check: negative core charge=   -0.000007

     Initial potential from superposition of free atoms

     starting charge   15.99944, renormalised to   16.00000
     Starting wfcs are random

     total cpu time spent up to now is        2.1 secs

     Self-consistent Calculation

     iteration #  1     ecut=    70.00 Ry     beta= 0.70
     CG style diagonalization
     ethr =  1.00E-02,  avg # of iterations =  8.9

     total cpu time spent up to now is       16.4 secs

     total energy              =     -53.44633088 Ry
     Harris-Foulkes estimate   =     -53.94648152 Ry
     estimated scf accuracy    <       0.76743281 Ry

     iteration #  2     ecut=    70.00 Ry     beta= 0.70
     CG style diagonalization
     ethr =  4.80E-03,  avg # of iterations =  3.7

     total cpu time spent up to now is       22.5 secs

     total energy              =     -53.65665327 Ry
     Harris-Foulkes estimate   =     -53.82374145 Ry
     estimated scf accuracy    <       0.31831329 Ry

     iteration #  3     ecut=    70.00 Ry     beta= 0.70
     CG style diagonalization
     ethr =  1.99E-03,  avg # of iterations =  3.4

     total cpu time spent up to now is       28.2 secs

     total energy              =     -53.71983449 Ry
     Harris-Foulkes estimate   =     -53.71979194 Ry
     estimated scf accuracy    <       0.00248977 Ry

     iteration #  4     ecut=    70.00 Ry     beta= 0.70
     CG style diagonalization
     c_bands:  1 eigenvalues not converged
     c_bands:  2 eigenvalues not converged
     c_bands:  1 eigenvalues not converged
     c_bands:  1 eigenvalues not converged
     c_bands:  1 eigenvalues not converged
     c_bands:  1 eigenvalues not converged
     c_bands:  1 eigenvalues not converged
     c_bands:  1 eigenvalues not converged
     c_bands:  2 eigenvalues not converged
     c_bands:  1 eigenvalues not converged
     c_bands:  1 eigenvalues not converged
     c_bands:  1 eigenvalues not converged
     c_bands:  1 eigenvalues not converged
     c_bands:  1 eigenvalues not converged
     c_bands:  1 eigenvalues not converged
     c_bands:  2 eigenvalues not converged
     c_bands:  2 eigenvalues not converged
     c_bands:  1 eigenvalues not converged
     c_bands:  1 eigenvalues not converged
     c_bands:  2 eigenvalues not converged
     c_bands:  2 eigenvalues not converged
     c_bands:  1 eigenvalues not converged
     c_bands:  1 eigenvalues not converged
     c_bands:  1 eigenvalues not converged
     c_bands:  2 eigenvalues not converged
     c_bands:  1 eigenvalues not converged
     c_bands:  2 eigenvalues not converged
     c_bands:  1 eigenvalues not converged
     c_bands:  1 eigenvalues not converged
     c_bands:  1 eigenvalues not converged
     c_bands:  1 eigenvalues not converged
     c_bands:  1 eigenvalues not converged
     c_bands:  1 eigenvalues not converged
     c_bands:  1 eigenvalues not converged
     c_bands:  1 eigenvalues not converged
     c_bands:  1 eigenvalues not converged
     c_bands:  1 eigenvalues not converged
     c_bands:  1 eigenvalues not converged
     c_bands:  1 eigenvalues not converged
     c_bands:  1 eigenvalues not converged
     c_bands:  1 eigenvalues not converged
     c_bands:  1 eigenvalues not converged
     c_bands:  1 eigenvalues not converged
     c_bands:  1 eigenvalues not converged
     c_bands:  1 eigenvalues not converged
     c_bands:  1 eigenvalues not converged
     ethr =  1.56E-05,  avg # of iterations =  5.4

     total cpu time spent up to now is       44.0 secs

     total energy              =     -53.72126177 Ry
     Harris-Foulkes estimate   =     -53.72216595 Ry
     estimated scf accuracy    <       0.00156816 Ry

     iteration #  5     ecut=    70.00 Ry     beta= 0.70
     CG style diagonalization
     c_bands:  1 eigenvalues not converged
     ethr =  9.80E-06,  avg # of iterations =  3.6

     total cpu time spent up to now is       54.9 secs

     total energy              =     -53.72165721 Ry
     Harris-Foulkes estimate   =     -53.72172360 Ry
     estimated scf accuracy    <       0.00015273 Ry

     iteration #  6     ecut=    70.00 Ry     beta= 0.70
     CG style diagonalization
     c_bands:  1 eigenvalues not converged
     c_bands:  1 eigenvalues not converged
     c_bands:  1 eigenvalues not converged
     ethr =  9.55E-07,  avg # of iterations =  3.4

     total cpu time spent up to now is       61.1 secs

     total energy              =     -53.72167072 Ry
     Harris-Foulkes estimate   =     -53.72167686 Ry
     estimated scf accuracy    <       0.00001609 Ry

     iteration #  7     ecut=    70.00 Ry     beta= 0.70
     CG style diagonalization
     ethr =  1.01E-07,  avg # of iterations =  3.5

     total cpu time spent up to now is       66.6 secs

     total energy              =     -53.72167445 Ry
     Harris-Foulkes estimate   =     -53.72167471 Ry
     estimated scf accuracy    <       0.00000054 Ry

     iteration #  8     ecut=    70.00 Ry     beta= 0.70
     CG style diagonalization
     ethr =  3.39E-09,  avg # of iterations =  3.8

     total cpu time spent up to now is       73.0 secs

     total energy              =     -53.72167476 Ry
     Harris-Foulkes estimate   =     -53.72167483 Ry
     estimated scf accuracy    <       0.00000014 Ry

     iteration #  9     ecut=    70.00 Ry     beta= 0.70
     CG style diagonalization
     ethr =  8.84E-10,  avg # of iterations =  3.7

     total cpu time spent up to now is       78.9 secs

     total energy              =     -53.72167479 Ry
     Harris-Foulkes estimate   =     -53.72167480 Ry
     estimated scf accuracy    <          6.8E-09 Ry

     iteration # 10     ecut=    70.00 Ry     beta= 0.70
     CG style diagonalization
     ethr =  4.24E-11,  avg # of iterations =  3.4

     total cpu time spent up to now is       84.6 secs

     total energy              =     -53.72167479 Ry
     Harris-Foulkes estimate   =     -53.72167479 Ry
     estimated scf accuracy    <          4.4E-10 Ry

     iteration # 11     ecut=    70.00 Ry     beta= 0.70
     CG style diagonalization
     ethr =  2.77E-12,  avg # of iterations =  3.9

     total cpu time spent up to now is       90.8 secs

     total energy              =     -53.72167479 Ry
     Harris-Foulkes estimate   =     -53.72167479 Ry
     estimated scf accuracy    <          2.2E-10 Ry

     iteration # 12     ecut=    70.00 Ry     beta= 0.70
     CG style diagonalization
     ethr =  1.40E-12,  avg # of iterations =  3.2

     total cpu time spent up to now is       95.8 secs

     total energy              =     -53.72167479 Ry
     Harris-Foulkes estimate   =     -53.72167479 Ry
     estimated scf accuracy    <          1.1E-11 Ry

     iteration # 13     ecut=    70.00 Ry     beta= 0.70
     CG style diagonalization
     ethr =  1.00E-13,  avg # of iterations =  3.6

     total cpu time spent up to now is      101.4 secs

     End of self-consistent calculation

     Number of k-points >= 100: set verbosity='high' to print the bands.

     the Fermi energy is     6.3753 ev

!    total energy              =     -53.72167479 Ry
     Harris-Foulkes estimate   =     -53.72167479 Ry
     estimated scf accuracy    <          4.4E-13 Ry

     The total energy is the sum of the following terms:

     one-electron contribution =     -16.15890810 Ry
     hartree contribution      =      16.40461457 Ry
     xc contribution           =     -17.11068222 Ry
     ewald contribution        =     -36.85669904 Ry
     smearing contrib. (-TS)   =      -0.00000000 Ry

     convergence has been achieved in  13 iterations

     Writing output data file ./hBN.save/
 
     init_run     :      0.90s CPU      1.04s WALL (       1 calls)
     electrons    :     73.67s CPU     99.32s WALL (       1 calls)

     Called by init_run:
     wfcinit      :      0.89s CPU      0.99s WALL (       1 calls)
     potinit      :      0.00s CPU      0.01s WALL (       1 calls)
     hinit0       :      0.00s CPU      0.03s WALL (       1 calls)

     Called by electrons:
     c_bands      :     67.90s CPU     93.03s WALL (      13 calls)
     sum_band     :      5.74s CPU      6.18s WALL (      13 calls)
     v_of_rho     :      0.02s CPU      0.04s WALL (      14 calls)
     mix_rho      :      0.01s CPU      0.01s WALL (      13 calls)

     Called by c_bands:
     init_us_2    :      0.50s CPU      0.57s WALL (   20844 calls)
     ccgdiagg     :     55.98s CPU     64.80s WALL (   10036 calls)
     wfcrot       :     11.00s CPU     12.72s WALL (   10036 calls)

     Called by sum_band:

     Called by *cgdiagg:
     h_psi        :     49.77s CPU     57.74s WALL (  395823 calls)
     cdiaghg      :      0.42s CPU      0.48s WALL (   10036 calls)

     Called by h_psi:
     h_psi:calbec :      5.47s CPU      6.22s WALL (  395823 calls)
     vloc_psi     :     41.05s CPU     47.64s WALL (  395823 calls)
     add_vuspsi   :      1.73s CPU      2.16s WALL (  395823 calls)
     hs_1psi      :     41.84s CPU     48.52s WALL (  385787 calls)
     s_1psi       :      5.03s CPU      5.86s WALL (  385787 calls)

     General routines
     calbec       :      8.20s CPU      9.45s WALL (  781610 calls)
     fft          :      0.02s CPU      0.04s WALL (     166 calls)
     ffts         :      0.00s CPU      0.01s WALL (      27 calls)
     fftw         :     43.46s CPU     49.89s WALL ( 1132870 calls)
     interpolate  :      0.00s CPU      0.01s WALL (      14 calls)
 
     Parallel routines
     fft_scatt_xy :      3.08s CPU      3.55s WALL ( 1133063 calls)
     fft_scatt_yz :     24.94s CPU     28.49s WALL ( 1133063 calls)
 
     PWSCF        :   1m15.53s CPU   1m49.05s WALL

 
   This run was terminated on:  13: 4:18  10Jun2024            

=------------------------------------------------------------------------------=
   JOB DONE.
=------------------------------------------------------------------------------=
