
     Program PWSCF v.7.1 starts on  9Jun2024 at 20:52: 6 

     This program is part of the open-source Quantum ESPRESSO suite
     for quantum simulation of materials; please cite
         "P. Giannozzi et al., J. Phys.:Condens. Matter 21 395502 (2009);
         "P. Giannozzi et al., J. Phys.:Condens. Matter 29 465901 (2017);
         "P. Giannozzi et al., J. Chem. Phys. 152 154105 (2020);
          URL http://www.quantum-espresso.org", 
     in publications or presentations arising from this work. More details at
     http://www.quantum-espresso.org/quote

     Parallel version (MPI), running on    32 processors

     MPI processes distributed on     1 nodes
     977566 MiB available memory on the printing compute node when the environment starts
 
     Waiting for input...
     Reading input from standard input
Warning: card  &CELL ignored
Warning: card  / ignored

     Current dimensions of program PWSCF are:
     Max number of different atomic species (ntypx) = 10
     Max number of k-points (npk) =  40000
     Max angular momentum in pseudopotentials (lmaxx) =  4
     file Mo.pbe-spn-kjpaw_psl.0.2.UPF: wavefunction(s)  4D renormalized
     file S.pbe-n-kjpaw_psl.0.1.UPF: wavefunction(s)  3P renormalized
 
     R & G space division:  proc/nbgrp/npool/nimage =      32
     Subspace diagonalization in iterative solution of the eigenvalue problem:
     a serial algorithm will be used

 
     Parallelization info
     --------------------
     sticks:   dense  smooth     PW     G-vecs:    dense   smooth      PW
     Min          32      21      6                11204     6087     950
     Max          33      22      7                11295     6164    1015
     Sum        1045     703    199               359937   195749   30989
 
     Using Slab Decomposition
 


     bravais-lattice index     =            4
     lattice parameter (alat)  =       6.0332  a.u.
     unit-cell volume          =    2477.4391 (a.u.)^3
     number of atoms/cell      =            3
     number of atomic types    =            2
     number of electrons       =        26.00
     number of Kohn-Sham states=           17
     kinetic-energy cutoff     =      70.0000  Ry
     charge density cutoff     =     420.0000  Ry
     scf convergence threshold =      1.0E-12
     mixing beta               =       0.7000
     number of iterations used =            8  plain     mixing
     Exchange-correlation= SLA  PW   PBX  PBC
                           (   1   4   3   4   0   0   0)

     celldm(1)=   6.033161  celldm(2)=   0.000000  celldm(3)=  13.026795
     celldm(4)=   0.000000  celldm(5)=   0.000000  celldm(6)=   0.000000

     crystal axes: (cart. coord. in units of alat)
               a(1) = (   1.000000   0.000000   0.000000 )  
               a(2) = (  -0.500000   0.866025   0.000000 )  
               a(3) = (   0.000000   0.000000  13.026795 )  

     reciprocal axes: (cart. coord. in units 2 pi/alat)
               b(1) = (  1.000000  0.577350  0.000000 )  
               b(2) = (  0.000000  1.154701  0.000000 )  
               b(3) = (  0.000000  0.000000  0.076765 )  


     PseudoPot. # 1 for Mo read from file:
     ./Mo.pbe-spn-kjpaw_psl.0.2.UPF
     MD5 check sum: c350be6523f52beb1aa5af16b45f597d
     Pseudo is Projector augmented-wave + core cor, Zval = 14.0
     Generated using "atomic" code by A. Dal Corso  v.5.0.2 svn rev. 9415
     Shape of augmentation charge: PSQ
     Using radial grid of 1229 points,  6 beta functions with: 
                l(1) =   0
                l(2) =   0
                l(3) =   1
                l(4) =   1
                l(5) =   2
                l(6) =   2
     Q(r) pseudized with 0 coefficients 


     PseudoPot. # 2 for S  read from file:
     ./S.pbe-n-kjpaw_psl.0.1.UPF
     MD5 check sum: 1c303a2ed0d2bd98331ea607af2ec33b
     Pseudo is Projector augmented-wave + core cor, Zval =  6.0
     Generated using "atomic" code by A. Dal Corso  v.5.0.2 svn rev. 9415
     Shape of augmentation charge: PSQ
     Using radial grid of 1151 points,  4 beta functions with: 
                l(1) =   0
                l(2) =   0
                l(3) =   1
                l(4) =   1
     Q(r) pseudized with 0 coefficients 


     atomic species   valence    mass     pseudopotential
        Mo            14.00    95.95000     Mo( 1.00)
        S              6.00    32.06500     S ( 1.00)

     No symmetry found



   Cartesian axes

     site n.     atom                  positions (alat units)
         1           Mo  tau(   1) = (   0.0005406   0.5779712   1.0404687  )
         2           S   tau(   2) = (   0.5005405   0.2892955   1.5310856  )
         3           S   tau(   3) = (   0.5005405   0.2892958   0.5498608  )

     number of k points=   164  Gaussian smearing, width (Ry)=  0.0200

     Number of k-points >= 100: set verbosity='high' to print them.

     Dense  grid:   359937 G-vectors     FFT dimensions: (  40,  40, 540)

     Smooth grid:   195749 G-vectors     FFT dimensions: (  36,  36, 432)

     Estimated max dynamical RAM per process >      75.65 MB

     Estimated total dynamical RAM >       2.36 GB

     Initial potential from superposition of free atoms

     starting charge      25.9986, renormalised to      26.0000

     negative rho (up, down):  1.574E-03 0.000E+00
     Starting wfcs are random
     Checking if some PAW data can be deallocated... 

     total cpu time spent up to now is       10.4 secs

     Self-consistent Calculation

     iteration #  1     ecut=    70.00 Ry     beta= 0.70
     CG style diagonalization
     c_bands:  1 eigenvalues not converged
     c_bands:  1 eigenvalues not converged
     c_bands:  1 eigenvalues not converged
     c_bands:  1 eigenvalues not converged
     ethr =  1.00E-02,  avg # of iterations = 11.6

     negative rho (up, down):  4.072E-05 0.000E+00

     total cpu time spent up to now is       83.7 secs

     total energy              =    -496.27491401 Ry
     estimated scf accuracy    <       0.53673765 Ry

     iteration #  2     ecut=    70.00 Ry     beta= 0.70
     CG style diagonalization
     ethr =  2.06E-03,  avg # of iterations =  4.9

     negative rho (up, down):  8.429E-05 0.000E+00

     total cpu time spent up to now is      115.5 secs

     total energy              =    -495.81514285 Ry
     estimated scf accuracy    <       6.32196719 Ry

     iteration #  3     ecut=    70.00 Ry     beta= 0.70
     CG style diagonalization
     ethr =  2.06E-03,  avg # of iterations =  3.8

     negative rho (up, down):  2.356E-04 0.000E+00

     total cpu time spent up to now is      140.9 secs

     total energy              =    -496.66741266 Ry
     estimated scf accuracy    <       0.12344874 Ry

     iteration #  4     ecut=    70.00 Ry     beta= 0.70
     CG style diagonalization
     ethr =  4.75E-04,  avg # of iterations =  3.5

     negative rho (up, down):  3.963E-04 0.000E+00

     total cpu time spent up to now is      164.4 secs

     total energy              =    -496.68703360 Ry
     estimated scf accuracy    <       0.01745770 Ry

     iteration #  5     ecut=    70.00 Ry     beta= 0.70
     CG style diagonalization
     ethr =  6.71E-05,  avg # of iterations =  3.6

     negative rho (up, down):  2.050E-03 0.000E+00

     total cpu time spent up to now is      188.5 secs

     total energy              =    -496.68769758 Ry
     estimated scf accuracy    <       0.02006075 Ry

     iteration #  6     ecut=    70.00 Ry     beta= 0.70
     CG style diagonalization
     ethr =  6.71E-05,  avg # of iterations =  3.1

     negative rho (up, down):  1.683E-03 0.000E+00

     total cpu time spent up to now is      209.5 secs

     total energy              =    -496.69043847 Ry
     estimated scf accuracy    <       0.00036620 Ry

     iteration #  7     ecut=    70.00 Ry     beta= 0.70
     CG style diagonalization
     ethr =  1.41E-06,  avg # of iterations =  5.3

     negative rho (up, down):  1.691E-03 0.000E+00

     total cpu time spent up to now is      243.7 secs

     total energy              =    -496.69090019 Ry
     estimated scf accuracy    <       0.00008442 Ry

     iteration #  8     ecut=    70.00 Ry     beta= 0.70
     CG style diagonalization
     ethr =  3.25E-07,  avg # of iterations =  3.1

     negative rho (up, down):  1.657E-03 0.000E+00

     total cpu time spent up to now is      264.6 secs

     total energy              =    -496.69086465 Ry
     estimated scf accuracy    <       0.00006426 Ry

     iteration #  9     ecut=    70.00 Ry     beta= 0.70
     CG style diagonalization
     ethr =  2.47E-07,  avg # of iterations =  3.7

     negative rho (up, down):  1.656E-03 0.000E+00

     total cpu time spent up to now is      289.0 secs

     total energy              =    -496.69088506 Ry
     estimated scf accuracy    <       0.00004737 Ry

     iteration # 10     ecut=    70.00 Ry     beta= 0.70
     CG style diagonalization
     ethr =  1.82E-07,  avg # of iterations =  3.1

     negative rho (up, down):  1.657E-03 0.000E+00

     total cpu time spent up to now is      309.8 secs

     total energy              =    -496.69088292 Ry
     estimated scf accuracy    <       0.00001536 Ry

     iteration # 11     ecut=    70.00 Ry     beta= 0.70
     CG style diagonalization
     ethr =  5.91E-08,  avg # of iterations =  3.4

     negative rho (up, down):  1.658E-03 0.000E+00

     total cpu time spent up to now is      332.3 secs

     total energy              =    -496.69088595 Ry
     estimated scf accuracy    <       0.00000068 Ry

     iteration # 12     ecut=    70.00 Ry     beta= 0.70
     CG style diagonalization
     ethr =  2.63E-09,  avg # of iterations =  4.0

     negative rho (up, down):  1.657E-03 0.000E+00

     total cpu time spent up to now is      358.6 secs

     total energy              =    -496.69088625 Ry
     estimated scf accuracy    <       0.00000004 Ry

     iteration # 13     ecut=    70.00 Ry     beta= 0.70
     CG style diagonalization
     ethr =  1.55E-10,  avg # of iterations =  4.2

     negative rho (up, down):  1.657E-03 0.000E+00

     total cpu time spent up to now is      386.0 secs

     total energy              =    -496.69088626 Ry
     estimated scf accuracy    <       0.00000002 Ry

     iteration # 14     ecut=    70.00 Ry     beta= 0.70
     CG style diagonalization
     ethr =  5.85E-11,  avg # of iterations =  3.7

     negative rho (up, down):  1.657E-03 0.000E+00

     total cpu time spent up to now is      410.3 secs

     total energy              =    -496.69088626 Ry
     estimated scf accuracy    <          1.1E-09 Ry

     iteration # 15     ecut=    70.00 Ry     beta= 0.70
     CG style diagonalization
     ethr =  4.06E-12,  avg # of iterations =  4.5

     negative rho (up, down):  1.657E-03 0.000E+00

     total cpu time spent up to now is      439.7 secs

     total energy              =    -496.69088627 Ry
     estimated scf accuracy    <          2.4E-09 Ry

     iteration # 16     ecut=    70.00 Ry     beta= 0.70
     CG style diagonalization
     ethr =  4.06E-12,  avg # of iterations =  3.3

     negative rho (up, down):  1.657E-03 0.000E+00

     total cpu time spent up to now is      461.6 secs

     total energy              =    -496.69088627 Ry
     estimated scf accuracy    <          3.4E-10 Ry

     iteration # 17     ecut=    70.00 Ry     beta= 0.70
     CG style diagonalization
     ethr =  1.30E-12,  avg # of iterations =  3.2

     negative rho (up, down):  1.657E-03 0.000E+00

     total cpu time spent up to now is      482.9 secs

     total energy              =    -496.69088627 Ry
     estimated scf accuracy    <          1.1E-10 Ry

     iteration # 18     ecut=    70.00 Ry     beta= 0.70
     CG style diagonalization
     ethr =  4.17E-13,  avg # of iterations =  3.4

     negative rho (up, down):  1.657E-03 0.000E+00

     total cpu time spent up to now is      505.7 secs

     total energy              =    -496.69088627 Ry
     estimated scf accuracy    <          2.7E-11 Ry

     iteration # 19     ecut=    70.00 Ry     beta= 0.70
     CG style diagonalization
     ethr =  1.05E-13,  avg # of iterations =  3.6

     negative rho (up, down):  1.657E-03 0.000E+00

     total cpu time spent up to now is      529.2 secs

     End of self-consistent calculation

     Number of k-points >= 100: set verbosity='high' to print the bands.

     the Fermi energy is    -2.7011 ev

!    total energy              =    -496.69088627 Ry
     total all-electron energy =     -9695.022272 Ry
     estimated scf accuracy    <          7.4E-13 Ry
     smearing contrib. (-TS)   =      -0.00000003 Ry
     internal energy E=F+TS    =    -496.69088623 Ry

     The total energy is F=E-TS. E is the sum of the following terms:
     one-electron contribution =   -2903.02291973 Ry
     hartree contribution      =    1451.72274741 Ry
     xc contribution           =     -42.55144557 Ry
     ewald contribution        =    1304.11068861 Ry
     one-center paw contrib.   =    -306.94995696 Ry

     convergence has been achieved in  19 iterations

     Writing all to output data dir ./MoS2.save/
 
     init_run     :      6.13s CPU      7.88s WALL (       1 calls)
     electrons    :    505.77s CPU    518.87s WALL (       1 calls)

     Called by init_run:
     wfcinit      :      5.41s CPU      5.62s WALL (       1 calls)
     potinit      :      0.18s CPU      0.37s WALL (       1 calls)
     hinit0       :      0.39s CPU      1.30s WALL (       1 calls)

     Called by electrons:
     c_bands      :    453.59s CPU    461.96s WALL (      19 calls)
     sum_band     :     49.23s CPU     50.74s WALL (      19 calls)
     v_of_rho     :      0.63s CPU      0.70s WALL (      20 calls)
     newd         :      0.83s CPU      1.88s WALL (      20 calls)
     PAW_pot      :      1.29s CPU      3.49s WALL (      20 calls)
     mix_rho      :      0.19s CPU      0.20s WALL (      19 calls)

     Called by c_bands:
     init_us_2    :      1.12s CPU      1.25s WALL (    6396 calls)
     init_us_2:cp :      1.11s CPU      1.23s WALL (    6396 calls)
     ccgdiagg     :    357.58s CPU    360.77s WALL (    3116 calls)
     wfcrot       :     99.76s CPU    100.69s WALL (    3116 calls)

     Called by *cgdiagg:
     h_psi        :    422.66s CPU    426.29s WALL (  173066 calls)
     s_psi        :     12.54s CPU     12.74s WALL (  343016 calls)

     Called by h_psi:
     h_psi:calbec :     16.02s CPU     16.13s WALL (  173066 calls)
     vloc_psi     :    398.23s CPU    401.64s WALL (  173066 calls)
     add_vuspsi   :      7.12s CPU      7.23s WALL (  173066 calls)
     hs_1psi      :    332.81s CPU    335.70s WALL (  169950 calls)
     s_1psi       :     13.97s CPU     14.09s WALL (  169950 calls)

     General routines
     calbec       :     24.46s CPU     24.79s WALL (  346132 calls)
     fft          :      0.94s CPU      1.70s WALL (     258 calls)
     ffts         :      0.06s CPU      0.07s WALL (      39 calls)
     fftw         :    434.31s CPU    437.82s WALL (  498816 calls)
     interpolate  :      0.10s CPU      0.11s WALL (      20 calls)
 
     Parallel routines
 
     PWSCF        :   8m33.71s CPU   8m55.34s WALL

 
   This run was terminated on:  21: 1: 1   9Jun2024            

=------------------------------------------------------------------------------=
   JOB DONE.
=------------------------------------------------------------------------------=
